ITEM: TIMESTEP
0
ITEM: NUMBER OF ATOMS
4
ITEM: BOX BOUNDS pp pp pp
0.0000000000000000e+00 1.5240311694726982e+00
0.0000000000000000e+00 1.5240311694726982e+00
0.0000000000000000e+00 1.5240311694726982e+00
ITEM: ATOMS id type x y z vx vy vz 
1 1 0 0 0 0 0 0 
2 1 0.762016 0.762016 0 0 0 0 
3 1 0.762016 0 0.762016 0 0 0 
4 1 0 0.762016 0.762016 0 0 0 
