ITEM: TIMESTEP
2800000
ITEM: NUMBER OF ATOMS
141
ITEM: BOX BOUNDS pp pp pp
0.0000000000000000e+00 1.4356000000000000e+02
0.0000000000000000e+00 1.4356000000000000e+02
0.0000000000000000e+00 1.4356000000000000e+02
ITEM: ATOMS id type xs ys zs
56 2 0.47028 0.495219 0.467512
114 2 0.488914 0.48533 0.467874
44 1 0.48184 0.499408 0.456729
125 2 0.500502 0.489765 0.458336
127 1 0.504056 0.472825 0.461532
132 2 0.516586 0.484617 0.465573
103 2 0.530392 0.497608 0.468737
99 2 0.486302 0.515725 0.460625
111 1 0.49969 0.507229 0.451337
85 2 0.497879 0.501957 0.46812
54 2 0.472699 0.511926 0.468368
87 1 0.509607 0.515927 0.4611
70 1 0.518483 0.501775 0.457655
60 2 0.526306 0.513633 0.46925
138 1 0.512737 0.530699 0.470293
130 1 0.49052 0.464123 0.471096
119 1 0.48124 0.469679 0.487749
19 1 0.499264 0.452647 0.487728
53 1 0.507315 0.456914 0.470739
113 1 0.518094 0.45734 0.485968
74 1 0.517958 0.468157 0.473475
107 1 0.502054 0.470068 0.482145
75 1 0.465564 0.475802 0.489208
135 1 0.454973 0.492583 0.490367
66 2 0.468732 0.496458 0.499414
128 2 0.494972 0.472362 0.498395
5 2 0.471513 0.492668 0.484403
29 1 0.47593 0.476109 0.474593
3 2 0.48391 0.495407 0.493349
67 2 0.489818 0.482704 0.48462
6 2 0.476886 0.481382 0.499436
57 2 0.483497 0.498717 0.475238
118 2 0.503642 0.485183 0.492128
116 2 0.503173 0.487508 0.475052
91 2 0.513343 0.472114 0.494424
8 2 0.518229 0.484186 0.482007
73 2 0.529183 0.495829 0.485877
131 2 0.523762 0.486642 0.498575
83 2 0.51288 0.498521 0.490898
110 2 0.513921 0.499514 0.473752
28 1 0.529584 0.472215 0.488265
36 1 0.533473 0.482353 0.474965
50 1 0.540143 0.485672 0.493301
100 1 0.460822 0.505982 0.477383
121 1 0.464245 0.522291 0.480454
33 2 0.458739 0.509607 0.493361
10 2 0.466101 0.524842 0.497658
37 1 0.478946 0.52699 0.470827
65 1 0.494956 0.528142 0.472261
84 2 0.475592 0.508613 0.48747
68 2 0.480923 0.523858 0.489428
126 2 0.48796 0.513422 0.477324
9 2 0.490199 0.512642 0.495581
90 2 0.496268 0.525246 0.48842
25 2 0.498667 0.500977 0.48465
55 2 0.508108 0.513603 0.476473
97 2 0.507104 0.513312 0.494237
106 2 0.522525 0.513008 0.485837
96 2 0.515029 0.52692 0.488004
102 2 0.527048 0.503485 0.499497
77 1 0.531789 0.526392 0.480154
27 1 0.542111 0.501581 0.495644
21 1 0.539443 0.509848 0.479812
23 1 0.537761 0.520065 0.495429
98 1 0.46832 0.53682 0.484149
86 1 0.485543 0.538626 0.482042
61 1 0.47826 0.539082 0.499503
133 2 0.496491 0.538115 0.497356
32 2 0.502288 0.542068 0.481445
46 1 0.519227 0.542057 0.480171
136 1 0.512488 0.543263 0.495668
1 1 0.5283 0.533902 0.497082
22 2 0.472243 0.465636 0.501177
112 1 0.489382 0.456091 0.501805
38 1 0.47959 0.456113 0.515586
31 1 0.49588 0.456914 0.51902
137 2 0.484816 0.468062 0.529298
139 1 0.506457 0.459059 0.50198
101 1 0.525622 0.460251 0.502212
120 1 0.514901 0.460885 0.518494
13 2 0.501946 0.470126 0.529188
51 1 0.469962 0.47349 0.519118
122 2 0.462146 0.483154 0.506288
42 1 0.462695 0.489752 0.52367
30 1 0.454899 0.496878 0.508991
80 1 0.484191 0.471119 0.51181
81 2 0.491587 0.485722 0.505059
52 2 0.477101 0.48806 0.514082
123 1 0.49199 0.482459 0.523325
58 2 0.486249 0.498051 0.525614
93 2 0.498721 0.497992 0.500029
35 2 0.500252 0.497136 0.516738
141 2 0.501958 0.473106 0.512627
109 2 0.519576 0.474406 0.509373
71 2 0.510559 0.484459 0.522771
92 2 0.50972 0.486968 0.505707
108 2 0.523035 0.491226 0.512644
18 1 0.537316 0.474361 0.507345
72 2 0.538481 0.492684 0.508941
59 1 0.535873 0.483472 0.523748
134 1 0.536806 0.49991 0.525224
117 1 0.460378 0.51401 0.509694
12 2 0.468217 0.515729 0.526288
129 2 0.47103 0.502675 0.517408
14 2 0.485464 0.50164 0.510536
2 2 0.475657 0.512702 0.502862
48 2 0.48775 0.525387 0.505586
4 2 0.482912 0.515393 0.519067
26 2 0.496697 0.529135 0.520539
76 2 0.498548 0.5102 0.527348
64 2 0.499315 0.513559 0.511839
69 2 0.514071 0.503264 0.524657
94 2 0.520634 0.519439 0.502593
115 1 0.512914 0.504038 0.50797
34 2 0.512641 0.520201 0.519603
11 2 0.527167 0.509424 0.516409
88 2 0.506211 0.527437 0.504295
20 2 0.53327 0.52594 0.512804
63 1 0.541993 0.509553 0.511595
62 1 0.539681 0.517854 0.526436
79 1 0.471178 0.529605 0.513271
47 1 0.481286 0.531562 0.527604
140 1 0.486507 0.540981 0.515169
82 1 0.504528 0.543296 0.512418
41 1 0.520904 0.536653 0.512845
124 1 0.512115 0.535935 0.526497
104 2 0.477102 0.485185 0.530056
15 2 0.493677 0.48019 0.540008
105 1 0.48605 0.49547 0.54366
78 2 0.499807 0.49523 0.533111
49 1 0.519096 0.473037 0.530676
24 2 0.521757 0.490043 0.53155
89 1 0.510394 0.4826 0.541843
16 1 0.470262 0.500742 0.534646
45 1 0.481067 0.511706 0.535379
7 2 0.496586 0.526138 0.537563
17 1 0.496347 0.509764 0.54419
43 1 0.524597 0.526 0.529571
39 1 0.511177 0.502178 0.542351
95 2 0.509802 0.517704 0.536347
40 2 0.525887 0.509619 0.534718
ITEM: TIMESTEP
2805000
ITEM: NUMBER OF ATOMS
141
ITEM: BOX BOUNDS pp pp pp
0.0000000000000000e+00 1.4356000000000000e+02
0.0000000000000000e+00 1.4356000000000000e+02
0.0000000000000000e+00 1.4356000000000000e+02
ITEM: ATOMS id type xs ys zs
53 1 0.507265 0.458123 0.471258
56 2 0.472764 0.491453 0.464861
114 2 0.489009 0.482762 0.466508
44 1 0.486937 0.498253 0.459226
127 1 0.50396 0.474843 0.46357
125 2 0.502702 0.493295 0.459925
132 2 0.519056 0.486682 0.467366
103 2 0.532302 0.49713 0.468418
99 2 0.489404 0.518964 0.4603
54 2 0.476025 0.507854 0.469665
65 1 0.497585 0.531171 0.469469
111 1 0.496446 0.509503 0.450294
85 2 0.501997 0.507779 0.467239
87 1 0.50719 0.520554 0.457269
70 1 0.515143 0.503006 0.454642
60 2 0.518871 0.515297 0.468487
130 1 0.491821 0.46624 0.474059
119 1 0.478987 0.468648 0.48727
19 1 0.493089 0.456178 0.486843
113 1 0.51776 0.45844 0.48996
74 1 0.520483 0.47004 0.472955
101 1 0.528888 0.463409 0.50766
75 1 0.463358 0.474886 0.491206
135 1 0.453606 0.494271 0.493116
66 2 0.470282 0.49484 0.500238
128 2 0.493668 0.470357 0.495588
5 2 0.473522 0.488711 0.483005
29 1 0.474236 0.475058 0.472128
3 2 0.485837 0.493866 0.491955
67 2 0.488548 0.480755 0.483152
6 2 0.478013 0.480397 0.497711
57 2 0.487414 0.49803 0.475764
93 2 0.498542 0.499559 0.500706
28 1 0.53009 0.471994 0.493909
107 1 0.505681 0.469556 0.483125
118 2 0.502357 0.482782 0.492063
116 2 0.50195 0.486436 0.475586
91 2 0.511706 0.47094 0.499031
8 2 0.519002 0.481025 0.486661
83 2 0.514112 0.496446 0.491982
110 2 0.516802 0.50109 0.476851
73 2 0.530124 0.493154 0.488259
36 1 0.534442 0.480726 0.477972
50 1 0.541577 0.485936 0.494987
100 1 0.462412 0.501093 0.476873
121 1 0.464846 0.517843 0.477318
33 2 0.461911 0.508648 0.49347
10 2 0.465321 0.524041 0.496707
37 1 0.478933 0.529649 0.471143
84 2 0.476742 0.506242 0.486669
68 2 0.480335 0.522891 0.490204
126 2 0.488654 0.514432 0.478502
9 2 0.48996 0.511659 0.495328
90 2 0.496045 0.525587 0.488562
25 2 0.501532 0.502855 0.483886
55 2 0.505012 0.51976 0.47725
97 2 0.506178 0.514156 0.496005
106 2 0.518554 0.512773 0.487026
96 2 0.512914 0.528828 0.487626
77 1 0.528127 0.526383 0.479688
27 1 0.543847 0.502617 0.491472
21 1 0.534372 0.509684 0.479804
23 1 0.536289 0.519428 0.491552
98 1 0.468122 0.534007 0.484655
86 1 0.484128 0.538865 0.483087
61 1 0.475731 0.538632 0.499256
133 2 0.493936 0.538372 0.496967
138 1 0.513817 0.533207 0.470636
32 2 0.501768 0.540847 0.482493
46 1 0.519268 0.544181 0.482695
136 1 0.511167 0.543706 0.497256
1 1 0.52601 0.536617 0.494808
22 2 0.471449 0.46833 0.506039
112 1 0.484882 0.454627 0.50129
38 1 0.478328 0.454464 0.516839
31 1 0.495028 0.454191 0.514093
139 1 0.503737 0.456973 0.498569
120 1 0.512959 0.460096 0.514977
13 2 0.498382 0.464678 0.527731
51 1 0.46786 0.473302 0.521023
122 2 0.462397 0.483314 0.508115
42 1 0.46077 0.489985 0.523715
80 1 0.485561 0.469124 0.511386
81 2 0.49331 0.484487 0.506255
52 2 0.476165 0.487082 0.514173
123 1 0.493521 0.481512 0.523065
35 2 0.499969 0.497366 0.516843
58 2 0.486347 0.499122 0.524543
131 2 0.52473 0.485871 0.502065
141 2 0.501769 0.472234 0.511953
109 2 0.522132 0.47671 0.516586
71 2 0.510843 0.484343 0.523285
92 2 0.50964 0.487165 0.506605
108 2 0.52554 0.49366 0.517791
18 1 0.538047 0.477375 0.510213
72 2 0.539842 0.497507 0.507431
59 1 0.529919 0.475329 0.529347
134 1 0.538001 0.496616 0.526979
30 1 0.456131 0.50161 0.508083
117 1 0.459015 0.517562 0.51086
12 2 0.468331 0.517172 0.528174
129 2 0.470899 0.503853 0.515838
14 2 0.485238 0.499577 0.50823
2 2 0.474516 0.514016 0.502804
48 2 0.487394 0.525744 0.504797
4 2 0.483335 0.514927 0.519078
76 2 0.497379 0.511051 0.528527
64 2 0.499453 0.513502 0.511497
69 2 0.513479 0.502245 0.523836
94 2 0.522238 0.522168 0.500486
115 1 0.513353 0.504383 0.507141
34 2 0.514635 0.520148 0.514853
11 2 0.527394 0.5109 0.514486
88 2 0.50558 0.528316 0.502875
102 2 0.526666 0.505342 0.498985
20 2 0.532871 0.525318 0.511006
43 1 0.528368 0.52434 0.528845
63 1 0.546647 0.513327 0.503679
62 1 0.541084 0.514314 0.524269
79 1 0.471658 0.52953 0.51259
26 2 0.496417 0.528412 0.518193
140 1 0.486079 0.541723 0.51272
47 1 0.481911 0.530331 0.527381
82 1 0.501771 0.544084 0.513053
41 1 0.519784 0.536021 0.510371
124 1 0.511308 0.5336 0.525267
137 2 0.482048 0.467643 0.52822
104 2 0.47804 0.485184 0.530013
15 2 0.492335 0.480529 0.539646
105 1 0.486483 0.496728 0.542156
78 2 0.501369 0.495469 0.533255
49 1 0.512798 0.470494 0.530694
24 2 0.522227 0.489948 0.533509
89 1 0.51078 0.481394 0.540919
16 1 0.473127 0.500395 0.532723
45 1 0.483247 0.513894 0.537735
17 1 0.49922 0.511687 0.545095
7 2 0.498541 0.52799 0.535824
39 1 0.515201 0.499517 0.54231
95 2 0.511086 0.515868 0.534414
40 2 0.526222 0.506607 0.532559
ITEM: TIMESTEP
2810000
ITEM: NUMBER OF ATOMS
141
ITEM: BOX BOUNDS pp pp pp
0.0000000000000000e+00 1.4356000000000000e+02
0.0000000000000000e+00 1.4356000000000000e+02
0.0000000000000000e+00 1.4356000000000000e+02
ITEM: ATOMS id type xs ys zs
53 1 0.503906 0.453787 0.472084
56 2 0.471742 0.490766 0.465152
114 2 0.48892 0.480744 0.46621
125 2 0.501417 0.490406 0.458073
127 1 0.504066 0.470551 0.464459
44 1 0.486035 0.498486 0.45775
132 2 0.516255 0.486799 0.466872
103 2 0.530886 0.494801 0.467828
99 2 0.489231 0.515969 0.462303
111 1 0.501256 0.507262 0.450428
85 2 0.500635 0.504598 0.467352
54 2 0.474971 0.507302 0.469044
65 1 0.496475 0.530009 0.472778
70 1 0.516687 0.503422 0.459575
87 1 0.504767 0.521539 0.458749
60 2 0.520797 0.517382 0.467579
37 1 0.479237 0.525995 0.471079
130 1 0.48929 0.465314 0.474171
119 1 0.480771 0.465143 0.487459
19 1 0.497116 0.455075 0.487926
128 2 0.49463 0.471514 0.495791
113 1 0.514467 0.457892 0.48749
74 1 0.518319 0.467274 0.471923
75 1 0.46138 0.477483 0.491275
135 1 0.457499 0.492787 0.492933
66 2 0.472986 0.496808 0.499347
29 1 0.472877 0.47382 0.477116
5 2 0.472835 0.488511 0.484051
3 2 0.486052 0.494441 0.491627
67 2 0.488024 0.479199 0.483139
6 2 0.478523 0.481557 0.497842
57 2 0.48703 0.497022 0.475628
107 1 0.503696 0.469676 0.481776
118 2 0.501281 0.486042 0.490435
116 2 0.500152 0.488268 0.475383
91 2 0.511991 0.472539 0.49663
8 2 0.515935 0.483092 0.483057
83 2 0.513787 0.496823 0.491727
131 2 0.525613 0.486714 0.498891
28 1 0.526607 0.470807 0.488226
73 2 0.528184 0.496134 0.483714
36 1 0.532317 0.478647 0.473704
50 1 0.53842 0.485084 0.487899
100 1 0.461294 0.501524 0.4779
121 1 0.464171 0.518703 0.474864
33 2 0.45962 0.511541 0.493398
10 2 0.463029 0.528842 0.496797
84 2 0.474617 0.506562 0.485943
68 2 0.478586 0.523113 0.488681
126 2 0.489181 0.514091 0.478888
9 2 0.488014 0.511962 0.496826
90 2 0.496678 0.52646 0.489297
25 2 0.499908 0.502058 0.483953
110 2 0.514554 0.501631 0.476657
55 2 0.507461 0.517723 0.476602
97 2 0.509678 0.512653 0.492415
106 2 0.525022 0.511728 0.482908
96 2 0.516747 0.527146 0.48868
77 1 0.531949 0.525938 0.479321
27 1 0.54153 0.501017 0.490549
21 1 0.53902 0.510363 0.475
23 1 0.53793 0.52023 0.495619
98 1 0.470209 0.535397 0.482248
86 1 0.487145 0.539648 0.484001
61 1 0.477694 0.541036 0.499207
133 2 0.496583 0.542441 0.499976
138 1 0.514398 0.533246 0.470601
32 2 0.505831 0.539809 0.484134
46 1 0.52223 0.543337 0.481147
136 1 0.516644 0.543332 0.49942
1 1 0.53105 0.534678 0.494471
22 2 0.47222 0.468277 0.504587
112 1 0.487533 0.456347 0.501711
38 1 0.476863 0.45739 0.518281
31 1 0.496544 0.456721 0.518562
80 1 0.4862 0.469685 0.513316
101 1 0.522521 0.462697 0.503145
139 1 0.505337 0.45673 0.502905
120 1 0.516316 0.460766 0.516286
51 1 0.471346 0.473501 0.522663
122 2 0.463773 0.483002 0.507033
42 1 0.463382 0.487493 0.523204
30 1 0.45417 0.499019 0.508334
81 2 0.492721 0.485965 0.505066
52 2 0.478501 0.486196 0.514636
123 1 0.493806 0.482754 0.521036
58 2 0.48532 0.499069 0.525258
93 2 0.499798 0.500724 0.500318
14 2 0.486589 0.501835 0.508896
104 2 0.480233 0.485446 0.533184
13 2 0.502914 0.470436 0.527153
35 2 0.501053 0.497673 0.517327
141 2 0.50448 0.473291 0.511071
109 2 0.520161 0.477994 0.511538
71 2 0.511523 0.486504 0.525909
92 2 0.509059 0.488698 0.504687
108 2 0.522095 0.493293 0.514729
18 1 0.536014 0.473179 0.503067
72 2 0.537256 0.495952 0.507843
59 1 0.533989 0.481639 0.52095
134 1 0.539734 0.500677 0.532357
117 1 0.457513 0.516471 0.510289
12 2 0.466363 0.518141 0.525136
129 2 0.469855 0.50248 0.51539
2 2 0.473344 0.515881 0.502765
48 2 0.487271 0.528812 0.503743
4 2 0.481396 0.514779 0.517098
26 2 0.494777 0.528109 0.519778
76 2 0.496499 0.512762 0.525896
47 1 0.479769 0.530351 0.528085
79 1 0.469689 0.528438 0.513217
64 2 0.498592 0.514861 0.508434
94 2 0.521032 0.520859 0.503529
69 2 0.513348 0.503739 0.526531
115 1 0.513014 0.506708 0.508364
34 2 0.509257 0.520615 0.519364
11 2 0.527493 0.509643 0.516219
43 1 0.52538 0.524994 0.526725
102 2 0.527633 0.504533 0.499076
20 2 0.534905 0.525989 0.511004
63 1 0.544302 0.51148 0.511862
62 1 0.540283 0.517489 0.529633
140 1 0.485205 0.539739 0.514693
88 2 0.505519 0.528837 0.503582
82 1 0.502099 0.541876 0.515897
41 1 0.516793 0.533911 0.514084
124 1 0.509099 0.532858 0.530401
137 2 0.48746 0.468372 0.5305
15 2 0.494406 0.477906 0.540407
105 1 0.483483 0.498437 0.54366
78 2 0.496978 0.494061 0.535221
49 1 0.520673 0.470625 0.528293
24 2 0.525238 0.490487 0.532851
89 1 0.511113 0.478821 0.541241
16 1 0.470161 0.501757 0.534203
45 1 0.481789 0.515197 0.536667
17 1 0.499123 0.507279 0.544315
7 2 0.496157 0.525594 0.536969
39 1 0.512853 0.49655 0.542051
95 2 0.510215 0.517578 0.534714
40 2 0.525534 0.508187 0.537002
ITEM: TIMESTEP
2815000
ITEM: NUMBER OF ATOMS
141
ITEM: BOX BOUNDS pp pp pp
0.0000000000000000e+00 1.4356000000000000e+02
0.0000000000000000e+00 1.4356000000000000e+02
0.0000000000000000e+00 1.4356000000000000e+02
ITEM: ATOMS id type xs ys zs
56 2 0.474889 0.489127 0.463588
114 2 0.490252 0.481663 0.466046
44 1 0.488456 0.494938 0.455608
127 1 0.506457 0.4726 0.465566
125 2 0.504502 0.488662 0.45921
132 2 0.516795 0.485826 0.465875
103 2 0.528362 0.500694 0.465097
99 2 0.486279 0.51201 0.460088
111 1 0.498243 0.505318 0.44844
65 1 0.495277 0.526913 0.466616
85 2 0.498476 0.504557 0.466359
70 1 0.514778 0.503321 0.455328
87 1 0.507571 0.518094 0.461152
60 2 0.522678 0.515503 0.470088
138 1 0.514938 0.532829 0.471658
130 1 0.493018 0.465716 0.474098
119 1 0.480685 0.466937 0.488977
19 1 0.496256 0.456645 0.486506
128 2 0.495196 0.471857 0.496619
53 1 0.506877 0.456944 0.473725
113 1 0.514017 0.456537 0.488207
74 1 0.519674 0.469738 0.472426
101 1 0.526828 0.461392 0.505676
75 1 0.463523 0.473545 0.487808
135 1 0.457019 0.49048 0.49104
29 1 0.474805 0.474691 0.474429
5 2 0.472018 0.491141 0.482306
3 2 0.484765 0.494864 0.492136
67 2 0.489804 0.480287 0.482505
6 2 0.478011 0.48154 0.497523
57 2 0.486413 0.496626 0.473532
28 1 0.527058 0.471038 0.490711
91 2 0.512568 0.4737 0.498972
107 1 0.505818 0.471497 0.483745
118 2 0.501999 0.486887 0.492744
116 2 0.502238 0.487144 0.474845
8 2 0.518195 0.48454 0.483429
131 2 0.523397 0.487037 0.499506
83 2 0.512942 0.497169 0.493339
110 2 0.514048 0.502299 0.473343
73 2 0.528336 0.497862 0.483369
36 1 0.535522 0.483748 0.472728
50 1 0.53862 0.486654 0.491167
100 1 0.460389 0.5007 0.480525
121 1 0.465027 0.517333 0.481075
33 2 0.457498 0.510788 0.495877
10 2 0.46744 0.527354 0.495555
54 2 0.474754 0.506388 0.470156
37 1 0.476693 0.522708 0.470474
84 2 0.474589 0.505844 0.487443
68 2 0.479714 0.523507 0.488454
126 2 0.490861 0.514985 0.478667
9 2 0.488799 0.511526 0.49475
90 2 0.497937 0.52482 0.490177
25 2 0.498787 0.501449 0.483421
55 2 0.507029 0.517703 0.478005
97 2 0.507323 0.512668 0.496481
106 2 0.520845 0.513188 0.485568
96 2 0.515678 0.528245 0.489738
77 1 0.530871 0.528476 0.477949
27 1 0.543181 0.502916 0.492985
21 1 0.53735 0.512356 0.477739
23 1 0.535997 0.52034 0.493422
98 1 0.468807 0.535646 0.481225
86 1 0.486593 0.536521 0.481436
61 1 0.477457 0.539848 0.495966
133 2 0.497625 0.54194 0.500655
32 2 0.504736 0.539083 0.48465
46 1 0.52102 0.544952 0.484568
1 1 0.528914 0.535581 0.495304
22 2 0.470063 0.46675 0.50449
112 1 0.487359 0.454889 0.502472
38 1 0.478088 0.458574 0.517288
31 1 0.496424 0.459007 0.51887
139 1 0.503527 0.458716 0.503878
120 1 0.513369 0.46265 0.517809
122 2 0.462098 0.483113 0.505553
42 1 0.460846 0.490304 0.522866
51 1 0.468294 0.473852 0.520086
30 1 0.455689 0.500781 0.510588
66 2 0.470598 0.497449 0.501406
80 1 0.485974 0.470478 0.509795
81 2 0.491741 0.485979 0.505782
52 2 0.476926 0.487032 0.51543
123 1 0.49151 0.483509 0.522016
58 2 0.483868 0.499149 0.527131
35 2 0.498599 0.498306 0.517304
141 2 0.502798 0.475312 0.51132
109 2 0.51989 0.476738 0.514325
71 2 0.510316 0.484109 0.524427
92 2 0.509152 0.488611 0.508831
108 2 0.523542 0.493939 0.516192
69 2 0.511778 0.501024 0.525041
13 2 0.503367 0.469303 0.529
18 1 0.533873 0.475769 0.505541
72 2 0.53721 0.49308 0.508004
59 1 0.534885 0.480608 0.521834
134 1 0.539525 0.497956 0.524864
117 1 0.457698 0.516845 0.51267
12 2 0.467992 0.519327 0.526643
129 2 0.471265 0.505153 0.516492
14 2 0.484732 0.501084 0.510153
2 2 0.473363 0.514692 0.50319
48 2 0.48583 0.526281 0.504859
4 2 0.482112 0.515975 0.518679
26 2 0.497252 0.52901 0.520181
76 2 0.497395 0.512573 0.527473
64 2 0.495978 0.513509 0.50995
79 1 0.470019 0.532178 0.510614
93 2 0.498726 0.500332 0.500481
94 2 0.520587 0.519348 0.503324
115 1 0.513796 0.504588 0.508389
34 2 0.51013 0.518576 0.517414
11 2 0.527561 0.511155 0.516014
88 2 0.505408 0.526943 0.504977
102 2 0.527317 0.504199 0.499055
20 2 0.534025 0.526143 0.509213
63 1 0.544347 0.507703 0.508079
62 1 0.541548 0.515582 0.523904
140 1 0.485462 0.541695 0.513725
47 1 0.48306 0.531586 0.528246
136 1 0.51387 0.544078 0.499347
82 1 0.507186 0.541004 0.517853
41 1 0.521697 0.536706 0.511394
137 2 0.484239 0.470275 0.526516
104 2 0.475741 0.485506 0.532261
15 2 0.491315 0.479416 0.539863
105 1 0.484468 0.496505 0.542582
78 2 0.498738 0.493431 0.534244
49 1 0.523362 0.469351 0.529606
24 2 0.524932 0.487053 0.532716
89 1 0.509983 0.481048 0.541013
16 1 0.467957 0.504449 0.533254
45 1 0.482331 0.515865 0.538606
17 1 0.499296 0.50589 0.544369
7 2 0.494926 0.52524 0.537411
43 1 0.528585 0.5261 0.52662
39 1 0.514481 0.497187 0.542508
95 2 0.511509 0.513886 0.534206
40 2 0.526454 0.506439 0.531826
124 1 0.51164 0.532317 0.530548
ITEM: TIMESTEP
2820000
ITEM: NUMBER OF ATOMS
141
ITEM: BOX BOUNDS pp pp pp
0.0000000000000000e+00 1.4356000000000000e+02
0.0000000000000000e+00 1.4356000000000000e+02
0.0000000000000000e+00 1.4356000000000000e+02
ITEM: ATOMS id type xs ys zs
56 2 0.472505 0.487933 0.467592
114 2 0.486506 0.480066 0.465734
44 1 0.484059 0.49765 0.459298
125 2 0.499117 0.489269 0.456975
127 1 0.504051 0.474622 0.462963
132 2 0.51604 0.486923 0.462974
103 2 0.529811 0.502975 0.468541
99 2 0.489049 0.515069 0.462526
54 2 0.476615 0.507188 0.469789
111 1 0.499874 0.504751 0.449833
37 1 0.479105 0.525716 0.471946
85 2 0.501124 0.503542 0.467058
70 1 0.515212 0.50332 0.457088
87 1 0.506064 0.518433 0.458771
130 1 0.488274 0.46396 0.472866
119 1 0.478183 0.464918 0.48487
19 1 0.493139 0.456186 0.488176
53 1 0.504165 0.457521 0.474058
113 1 0.51152 0.459307 0.489055
75 1 0.464736 0.473414 0.486123
135 1 0.45653 0.488876 0.489668
100 1 0.461708 0.49928 0.478189
128 2 0.493026 0.470571 0.496425
29 1 0.46965 0.471873 0.469997
5 2 0.472569 0.489219 0.48506
3 2 0.486448 0.494785 0.49449
67 2 0.487198 0.478727 0.481534
6 2 0.479618 0.479038 0.497141
57 2 0.486641 0.494249 0.477285
74 1 0.517582 0.470098 0.473936
28 1 0.527107 0.472339 0.489151
107 1 0.503115 0.472191 0.481015
91 2 0.510633 0.472462 0.497261
118 2 0.50089 0.485735 0.491785
116 2 0.501361 0.486544 0.474524
8 2 0.516139 0.48501 0.485083
131 2 0.526992 0.487083 0.497773
83 2 0.515938 0.498709 0.493163
73 2 0.530067 0.49795 0.483403
36 1 0.528928 0.482366 0.473822
50 1 0.540348 0.482414 0.487387
121 1 0.465484 0.520599 0.478898
33 2 0.460794 0.5082 0.494453
10 2 0.463539 0.525882 0.49653
84 2 0.476338 0.507748 0.486198
68 2 0.480097 0.525653 0.48806
126 2 0.489706 0.514985 0.477855
9 2 0.491156 0.512688 0.495036
90 2 0.498441 0.526795 0.486459
60 2 0.521993 0.516065 0.469313
25 2 0.501452 0.502067 0.48368
110 2 0.514396 0.500274 0.474347
55 2 0.508026 0.515858 0.477431
97 2 0.507483 0.51288 0.493697
106 2 0.52354 0.514776 0.486699
96 2 0.515086 0.527828 0.48993
77 1 0.531961 0.527111 0.477836
27 1 0.543992 0.501286 0.493467
21 1 0.53819 0.511644 0.480023
23 1 0.538416 0.51873 0.496027
98 1 0.468438 0.536123 0.484415
65 1 0.49571 0.530769 0.468621
86 1 0.485548 0.540743 0.482898
61 1 0.477309 0.537426 0.498203
133 2 0.496291 0.539992 0.497733
138 1 0.514325 0.532421 0.472108
32 2 0.505924 0.541325 0.484318
46 1 0.521787 0.541753 0.483659
136 1 0.51437 0.541638 0.500888
1 1 0.531233 0.533594 0.494491
22 2 0.47313 0.466025 0.502751
112 1 0.488288 0.455873 0.503801
38 1 0.476917 0.456778 0.517179
31 1 0.496183 0.459175 0.520283
139 1 0.503546 0.458307 0.503431
101 1 0.522347 0.46174 0.502705
120 1 0.512772 0.462769 0.51712
122 2 0.463693 0.481838 0.505401
42 1 0.463188 0.489259 0.523965
51 1 0.470757 0.473672 0.521697
30 1 0.456423 0.497179 0.508716
66 2 0.472354 0.496576 0.499757
80 1 0.484412 0.470247 0.512894
81 2 0.492063 0.48547 0.506486
52 2 0.476497 0.487519 0.514346
123 1 0.492346 0.481559 0.525272
35 2 0.500077 0.497697 0.517138
93 2 0.499572 0.500115 0.501208
141 2 0.502226 0.472537 0.511704
109 2 0.521523 0.476804 0.511464
71 2 0.509648 0.485516 0.521843
92 2 0.510487 0.486977 0.504146
108 2 0.522956 0.493185 0.512641
18 1 0.536057 0.474495 0.503509
72 2 0.541282 0.489742 0.506404
59 1 0.537979 0.480714 0.521722
134 1 0.539396 0.500729 0.522374
117 1 0.459176 0.515088 0.510923
129 2 0.470248 0.504707 0.517424
12 2 0.467426 0.518205 0.526283
58 2 0.48486 0.496366 0.52545
14 2 0.484723 0.502382 0.509564
2 2 0.476745 0.515659 0.501192
48 2 0.488632 0.526254 0.50482
4 2 0.483213 0.515684 0.518061
26 2 0.498242 0.526998 0.518909
76 2 0.496308 0.510957 0.528754
64 2 0.49789 0.513289 0.510534
102 2 0.529788 0.502955 0.502313
69 2 0.512373 0.502299 0.526084
94 2 0.52174 0.521685 0.503797
115 1 0.513188 0.50626 0.507764
34 2 0.51351 0.5202 0.518081
11 2 0.527244 0.511183 0.517473
43 1 0.525971 0.52772 0.528957
88 2 0.50538 0.527061 0.503755
20 2 0.534077 0.525643 0.512598
63 1 0.543851 0.511054 0.510459
62 1 0.542343 0.517105 0.525785
79 1 0.47123 0.529098 0.513485
47 1 0.480878 0.531414 0.529475
140 1 0.487366 0.542746 0.512676
82 1 0.503937 0.543468 0.514032
41 1 0.520276 0.535411 0.515024
124 1 0.510503 0.534863 0.529536
137 2 0.484768 0.466582 0.532105
104 2 0.476207 0.483403 0.532245
15 2 0.49128 0.482146 0.541413
105 1 0.480686 0.495384 0.543844
78 2 0.498293 0.494854 0.534121
13 2 0.503525 0.470309 0.530784
49 1 0.52332 0.473391 0.528155
24 2 0.526352 0.49345 0.529723
89 1 0.51298 0.484986 0.53845
39 1 0.510078 0.501363 0.545131
16 1 0.469761 0.502562 0.534305
45 1 0.481564 0.512932 0.534907
7 2 0.496252 0.526007 0.536888
17 1 0.495553 0.511227 0.54545
95 2 0.509516 0.517136 0.535373
40 2 0.525963 0.506951 0.537076
ITEM: TIMESTEP
2825000
ITEM: NUMBER OF ATOMS
141
ITEM: BOX BOUNDS pp pp pp
0.0000000000000000e+00 1.4356000000000000e+02
0.0000000000000000e+00 1.4356000000000000e+02
0.0000000000000000e+00 1.4356000000000000e+02
ITEM: ATOMS id type xs ys zs
56 2 0.468907 0.492081 0.466496
114 2 0.488366 0.483232 0.465342
44 1 0.483288 0.50046 0.455683
125 2 0.501432 0.491562 0.460971
127 1 0.502201 0.474835 0.463771
132 2 0.515538 0.486053 0.46665
103 2 0.530241 0.499718 0.46622
70 1 0.514378 0.50424 0.458003
99 2 0.487851 0.517027 0.459726
54 2 0.473909 0.510381 0.467117
85 2 0.500311 0.507677 0.467829
111 1 0.498374 0.506435 0.451128
87 1 0.507852 0.521355 0.459156
60 2 0.520174 0.515591 0.469378
75 1 0.465382 0.474714 0.485821
130 1 0.490103 0.462815 0.469894
119 1 0.481303 0.463588 0.486921
19 1 0.496019 0.45639 0.489165
53 1 0.508657 0.458289 0.474216
113 1 0.513999 0.457112 0.489878
74 1 0.519262 0.471337 0.472403
135 1 0.458131 0.490818 0.491757
5 2 0.473815 0.487986 0.48189
128 2 0.494321 0.47141 0.496956
29 1 0.475654 0.47394 0.468844
3 2 0.488998 0.49378 0.489242
67 2 0.488023 0.478045 0.481442
6 2 0.47854 0.4783 0.497337
57 2 0.486139 0.498285 0.473313
116 2 0.499983 0.487772 0.476824
66 2 0.474334 0.493935 0.497024
107 1 0.504489 0.471312 0.482241
91 2 0.511458 0.474666 0.49741
118 2 0.502471 0.485361 0.492423
8 2 0.515692 0.485561 0.483515
83 2 0.514529 0.498516 0.492505
73 2 0.530744 0.497179 0.484464
28 1 0.525456 0.468766 0.48775
36 1 0.532656 0.483824 0.475643
50 1 0.540174 0.481709 0.492206
100 1 0.461871 0.500706 0.478113
121 1 0.467797 0.517569 0.48054
33 2 0.461484 0.507825 0.493495
10 2 0.462531 0.52469 0.496958
37 1 0.479217 0.529276 0.471706
84 2 0.47662 0.504957 0.48532
68 2 0.477994 0.524474 0.490409
126 2 0.486919 0.514824 0.477803
9 2 0.488636 0.510919 0.494566
90 2 0.495412 0.526163 0.490279
25 2 0.500157 0.502225 0.482984
110 2 0.515125 0.499605 0.475178
55 2 0.504814 0.517989 0.478992
97 2 0.505743 0.514488 0.49562
106 2 0.520991 0.514262 0.487167
96 2 0.513159 0.528812 0.490761
77 1 0.530517 0.526208 0.479077
27 1 0.546969 0.500951 0.494141
21 1 0.536235 0.511945 0.480214
23 1 0.538558 0.519892 0.495213
98 1 0.467915 0.535406 0.481566
65 1 0.495243 0.53044 0.471149
86 1 0.485716 0.539091 0.481935
133 2 0.494103 0.541228 0.500041
61 1 0.474969 0.537543 0.499076
138 1 0.512832 0.532085 0.471466
32 2 0.502395 0.538113 0.484507
46 1 0.522431 0.54197 0.483489
136 1 0.512302 0.543405 0.498009
1 1 0.528835 0.533171 0.495783
22 2 0.472086 0.465933 0.502576
112 1 0.487028 0.455547 0.503607
38 1 0.478532 0.457561 0.519309
31 1 0.496269 0.45825 0.518378
80 1 0.484553 0.471707 0.511795
139 1 0.504249 0.457524 0.505055
101 1 0.520399 0.461676 0.504801
120 1 0.51304 0.462928 0.520304
122 2 0.464115 0.482458 0.504879
42 1 0.462489 0.489013 0.52387
30 1 0.454745 0.49705 0.507308
51 1 0.469666 0.472703 0.521546
93 2 0.500225 0.500495 0.500026
81 2 0.492315 0.48679 0.505365
52 2 0.478353 0.487135 0.512633
123 1 0.493295 0.484917 0.522562
35 2 0.50075 0.498146 0.516906
131 2 0.524848 0.485969 0.498366
141 2 0.501418 0.47354 0.513789
109 2 0.52148 0.476744 0.513171
71 2 0.5118 0.486676 0.524573
92 2 0.509615 0.488684 0.507951
108 2 0.523947 0.493325 0.513222
18 1 0.533593 0.471483 0.503598
72 2 0.539333 0.491014 0.506558
59 1 0.537986 0.478776 0.517504
134 1 0.537024 0.497522 0.524185
117 1 0.459195 0.514913 0.510325
12 2 0.468409 0.517532 0.525413
129 2 0.469554 0.501807 0.51516
58 2 0.48569 0.499045 0.525226
14 2 0.485148 0.501385 0.5087
2 2 0.474077 0.513669 0.501871
48 2 0.486682 0.526443 0.503692
4 2 0.482569 0.516171 0.515533
26 2 0.496147 0.528186 0.518723
64 2 0.49807 0.513194 0.510811
76 2 0.499126 0.513257 0.526611
47 1 0.479736 0.528458 0.528206
69 2 0.514267 0.502922 0.526498
94 2 0.520561 0.51813 0.503195
115 1 0.513545 0.504376 0.508939
34 2 0.512868 0.518525 0.519141
11 2 0.527434 0.511032 0.517448
102 2 0.52796 0.502564 0.50107
88 2 0.505504 0.52815 0.505983
43 1 0.528226 0.525793 0.527719
20 2 0.534257 0.525415 0.511866
63 1 0.541572 0.507397 0.510446
62 1 0.54313 0.516504 0.525895
79 1 0.471719 0.527893 0.511375
140 1 0.483802 0.540889 0.514542
82 1 0.504648 0.543223 0.514093
41 1 0.52 0.535088 0.512298
137 2 0.486673 0.468607 0.529786
13 2 0.502592 0.473951 0.531083
16 1 0.468297 0.500771 0.533647
104 2 0.477811 0.484656 0.52851
15 2 0.490248 0.481679 0.539475
78 2 0.500169 0.496235 0.535308
49 1 0.522079 0.472842 0.53202
24 2 0.526602 0.489947 0.534286
89 1 0.510769 0.484094 0.541361
39 1 0.513976 0.49906 0.544657
105 1 0.48423 0.49659 0.54306
45 1 0.48461 0.513368 0.535559
7 2 0.4968 0.525277 0.537184
17 1 0.500065 0.510026 0.544739
95 2 0.514019 0.518292 0.537271
40 2 0.526367 0.510134 0.534236
124 1 0.511404 0.534202 0.529393
ITEM: TIMESTEP
2830000
ITEM: NUMBER OF ATOMS
141
ITEM: BOX BOUNDS pp pp pp
0.0000000000000000e+00 1.4356000000000000e+02
0.0000000000000000e+00 1.4356000000000000e+02
0.0000000000000000e+00 1.4356000000000000e+02
ITEM: ATOMS id type xs ys zs
56 2 0.470347 0.49023 0.467586
114 2 0.485692 0.482918 0.466778
125 2 0.502284 0.492251 0.457951
127 1 0.50236 0.474349 0.465445
132 2 0.515912 0.487204 0.465904
103 2 0.52721 0.498573 0.470443
44 1 0.485346 0.497808 0.457458
99 2 0.488066 0.516855 0.460261
54 2 0.475836 0.508648 0.468748
65 1 0.49731 0.529699 0.466563
111 1 0.501066 0.506985 0.448625
85 2 0.499647 0.505509 0.465544
70 1 0.516485 0.50319 0.457094
87 1 0.510193 0.520203 0.459366
60 2 0.52155 0.514605 0.470594
130 1 0.489827 0.467356 0.473615
119 1 0.482201 0.467352 0.48773
19 1 0.496927 0.458192 0.489062
128 2 0.495762 0.47201 0.496568
53 1 0.503207 0.459747 0.47342
113 1 0.514511 0.460496 0.484938
74 1 0.517506 0.471455 0.473659
75 1 0.466083 0.474123 0.488759
135 1 0.456798 0.489204 0.492993
29 1 0.47092 0.473159 0.474366
5 2 0.472415 0.488916 0.484032
3 2 0.487198 0.496086 0.492814
67 2 0.487707 0.482013 0.482787
6 2 0.480688 0.480088 0.498102
57 2 0.486157 0.497374 0.474766
116 2 0.500861 0.489565 0.473476
107 1 0.503903 0.474834 0.481392
91 2 0.511932 0.473031 0.497649
118 2 0.503134 0.487422 0.492096
8 2 0.517413 0.48475 0.483242
83 2 0.514516 0.498652 0.491932
131 2 0.524115 0.485534 0.497583
28 1 0.528053 0.471246 0.487749
73 2 0.529112 0.496924 0.485423
110 2 0.513501 0.501359 0.475512
36 1 0.53202 0.482609 0.473053