ITEM: TIMESTEP
50000
ITEM: NUMBER OF ATOMS
141
ITEM: BOX BOUNDS pp pp pp
0.0000000000000000e+00 1.4356000000000000e+02
0.0000000000000000e+00 1.4356000000000000e+02
0.0000000000000000e+00 1.4356000000000000e+02
ITEM: ATOMS id type xs ys zs
42 1 0.485673 0.486742 0.45974
9 2 0.498305 0.498985 0.464945
53 1 0.498929 0.498181 0.448474
47 1 0.483568 0.472574 0.468727
30 1 0.502071 0.484208 0.458678
18 1 0.517126 0.490986 0.461679
49 1 0.486556 0.507768 0.458164
56 2 0.484882 0.524842 0.464109
51 1 0.499002 0.52022 0.459673
7 2 0.473916 0.512801 0.467475
46 1 0.509502 0.508605 0.457369
44 1 0.523472 0.519898 0.46529
1 1 0.529544 0.502363 0.466723
50 1 0.510237 0.531935 0.467683
23 1 0.471873 0.468894 0.481331
113 1 0.49062 0.4497 0.497201
25 2 0.493387 0.467519 0.497032
20 2 0.486271 0.462259 0.483242
59 1 0.476246 0.463744 0.497927
8 2 0.502954 0.468856 0.472856
16 1 0.50195 0.456541 0.486641
60 2 0.51659 0.462047 0.496066
5 2 0.519738 0.468795 0.478497
75 1 0.533931 0.466771 0.493913
79 1 0.460351 0.487435 0.48854
21 1 0.457 0.470737 0.495141
19 1 0.481239 0.496544 0.47145
39 1 0.471293 0.483572 0.47422
22 2 0.476247 0.495706 0.489968
11 2 0.493461 0.484339 0.475846
67 2 0.482384 0.478447 0.486506
3 2 0.494315 0.496506 0.48355
72 2 0.49426 0.484568 0.494665
71 2 0.471868 0.480372 0.498114
12 2 0.509571 0.483063 0.473553
17 1 0.527547 0.483828 0.471473
13 2 0.510091 0.489626 0.488294
108 2 0.505943 0.473534 0.487256
73 2 0.521258 0.47897 0.492639
4 2 0.525979 0.495174 0.482889
29 1 0.543941 0.4977 0.47707
90 2 0.536535 0.482873 0.486892
76 2 0.530894 0.490921 0.499951
91 2 0.544933 0.496772 0.495847
36 1 0.455738 0.503967 0.49686
2 2 0.465886 0.504191 0.478002
35 2 0.461665 0.518862 0.48712
10 2 0.475257 0.524714 0.478783
24 2 0.4792 0.51103 0.483942
6 2 0.491643 0.511763 0.473874
48 2 0.477639 0.521995 0.494927
69 2 0.492855 0.522385 0.488486
28 1 0.488 0.506997 0.496507
55 2 0.506449 0.517077 0.473454
32 2 0.516738 0.503213 0.495451
54 2 0.503268 0.510278 0.486156
40 2 0.513551 0.500411 0.476944
43 1 0.52285 0.512383 0.480067
104 2 0.508272 0.527421 0.488394
58 2 0.517787 0.519812 0.498936
45 1 0.539288 0.517611 0.475946
94 2 0.532221 0.507919 0.493343
57 2 0.531423 0.524294 0.48965
77 1 0.54753 0.511939 0.488997
80 1 0.467319 0.534114 0.491146
97 2 0.496216 0.533529 0.476672
95 2 0.483332 0.538133 0.488641
38 1 0.500159 0.541046 0.494749
140 1 0.524273 0.532556 0.477425
107 1 0.51115 0.544456 0.481307
101 1 0.519371 0.537766 0.496035
66 2 0.469788 0.470349 0.513633
14 2 0.486788 0.460342 0.511751
130 1 0.487886 0.456347 0.527791
15 2 0.500095 0.467258 0.516799
61 1 0.504011 0.454721 0.504576
115 1 0.517249 0.461688 0.515194
65 1 0.450434 0.494211 0.50777
111 1 0.455602 0.478351 0.514028
82 1 0.465286 0.492091 0.505207
137 2 0.46035 0.492829 0.523932
114 2 0.482398 0.473257 0.525847
118 2 0.483837 0.490723 0.504551
110 2 0.486762 0.476369 0.510055
126 2 0.487792 0.491559 0.520954
131 2 0.498429 0.480079 0.526958
129 2 0.472858 0.485384 0.517631
86 1 0.501561 0.497518 0.500619
74 1 0.500448 0.484438 0.511309
109 2 0.509907 0.474404 0.503397
141 2 0.513433 0.478704 0.520269
64 2 0.525794 0.47468 0.508071
78 2 0.515375 0.49105 0.506262
133 2 0.527065 0.49065 0.51732
132 2 0.509114 0.494449 0.522695
31 1 0.540383 0.480774 0.51909
62 1 0.54365 0.480008 0.502277
105 1 0.541517 0.497304 0.518901
122 2 0.465205 0.520549 0.504596
33 2 0.460427 0.507465 0.513603
37 1 0.46804 0.522843 0.521295
34 2 0.472068 0.506787 0.500415
81 2 0.475895 0.50118 0.516259
87 1 0.479792 0.51589 0.511623
85 2 0.487477 0.510946 0.525785
84 2 0.493438 0.504049 0.513002
68 2 0.497872 0.522565 0.516695
92 2 0.519895 0.504664 0.524307
26 2 0.500635 0.515933 0.502642
88 2 0.509419 0.505513 0.510887
41 1 0.517265 0.52138 0.516023
93 2 0.52525 0.50533 0.508619
102 2 0.504207 0.512066 0.526059
27 1 0.543955 0.510489 0.508043
120 1 0.535094 0.51176 0.52256
106 2 0.531326 0.521791 0.507426
52 2 0.490575 0.529749 0.502537
127 1 0.472387 0.536243 0.505975
89 1 0.487156 0.545348 0.505633
83 2 0.484764 0.531516 0.51971
96 2 0.500443 0.538237 0.519528
134 1 0.509244 0.547363 0.508338
99 2 0.507136 0.531135 0.505648
100 1 0.523394 0.538957 0.513676
138 1 0.530472 0.530241 0.524947
125 2 0.495741 0.469401 0.538013
112 1 0.507878 0.463998 0.530258
117 1 0.488015 0.485429 0.542787
116 2 0.497233 0.496982 0.533438
103 2 0.47645 0.493179 0.532247
119 1 0.520476 0.487015 0.53389
63 1 0.504802 0.484722 0.544891
136 1 0.532346 0.499312 0.534265
123 1 0.468291 0.50877 0.529497
70 1 0.478168 0.523621 0.534652
124 1 0.485448 0.501592 0.544898
139 1 0.499426 0.512839 0.541723
98 1 0.511219 0.526915 0.530214
121 1 0.512939 0.502005 0.538975
128 2 0.524146 0.515747 0.534605
135 1 0.494722 0.529662 0.533876
ITEM: TIMESTEP
55000
ITEM: NUMBER OF ATOMS
141
ITEM: BOX BOUNDS pp pp pp
0.0000000000000000e+00 1.4356000000000000e+02
0.0000000000000000e+00 1.4356000000000000e+02
0.0000000000000000e+00 1.4356000000000000e+02
ITEM: ATOMS id type xs ys zs
42 1 0.490483 0.474128 0.457663
9 2 0.490239 0.490747 0.467255
30 1 0.506667 0.484376 0.460051
18 1 0.520892 0.490238 0.464616
53 1 0.502593 0.499697 0.453901
17 1 0.536178 0.486105 0.469228
49 1 0.476206 0.497857 0.461573
51 1 0.487485 0.507403 0.452871
6 2 0.494341 0.50762 0.468157
10 2 0.475268 0.51379 0.468201
46 1 0.510833 0.510298 0.462931
44 1 0.514502 0.528932 0.464704
50 1 0.500382 0.521895 0.456275
1 1 0.526569 0.507168 0.46563
56 2 0.486115 0.526314 0.464446
59 1 0.472131 0.463362 0.493585
20 2 0.490752 0.464478 0.488557
47 1 0.482732 0.465111 0.476003
8 2 0.508887 0.469584 0.465967
16 1 0.499681 0.458142 0.475257
5 2 0.511586 0.466579 0.484983
60 2 0.515384 0.459982 0.500119
75 1 0.529229 0.465026 0.491491
79 1 0.461216 0.483611 0.491775
39 1 0.464254 0.471713 0.481712
2 2 0.46874 0.492475 0.479107
19 1 0.474912 0.481236 0.46923
11 2 0.495241 0.475346 0.473485
67 2 0.48078 0.479168 0.486229
3 2 0.494501 0.491212 0.482287
72 2 0.490314 0.487461 0.50238
22 2 0.480853 0.494833 0.491628
12 2 0.511735 0.482348 0.478418
13 2 0.509497 0.49434 0.490356
108 2 0.499925 0.477995 0.490718
73 2 0.524382 0.4734 0.473002
4 2 0.52347 0.494238 0.480839
40 2 0.507487 0.496929 0.472598
76 2 0.526592 0.494736 0.496848
64 2 0.520134 0.478216 0.492686
90 2 0.535649 0.482487 0.486315
91 2 0.544167 0.495833 0.494393
34 2 0.468903 0.510868 0.483877
82 1 0.467118 0.500932 0.499554
36 1 0.456013 0.498576 0.489789
33 2 0.45846 0.515237 0.497392
7 2 0.481906 0.502948 0.478321
86 1 0.497138 0.501711 0.498687
24 2 0.488097 0.519991 0.479628
48 2 0.483389 0.5287 0.495465
28 1 0.485062 0.510771 0.493931
35 2 0.472276 0.525748 0.482603
54 2 0.499267 0.508769 0.483192
55 2 0.503929 0.52385 0.47925
32 2 0.511859 0.508431 0.494204
43 1 0.517854 0.510348 0.478327
104 2 0.5168 0.524674 0.491645
94 2 0.527619 0.510534 0.490364
57 2 0.532234 0.523614 0.498912
69 2 0.499245 0.536482 0.48873
26 2 0.499997 0.519044 0.495185
29 1 0.538833 0.503794 0.479019
45 1 0.526858 0.524097 0.475981
77 1 0.542537 0.518956 0.485758
80 1 0.466231 0.534207 0.500286
97 2 0.486472 0.536538 0.47954
95 2 0.513278 0.537858 0.498626
107 1 0.499415 0.537352 0.469941
38 1 0.533065 0.535448 0.48677
140 1 0.515757 0.535951 0.480645
21 1 0.473319 0.463815 0.510225
113 1 0.489161 0.455257 0.505116
25 2 0.500651 0.469707 0.504101
14 2 0.488843 0.464218 0.519413
129 2 0.473265 0.468152 0.526647
130 1 0.503522 0.455375 0.514778
61 1 0.502633 0.453375 0.493776
125 2 0.504551 0.467545 0.527369
115 1 0.530205 0.466078 0.508953
23 1 0.458315 0.4688 0.500746
111 1 0.453177 0.487062 0.506807
137 2 0.461334 0.477243 0.517627
126 2 0.469126 0.493096 0.515554
71 2 0.470325 0.483608 0.503663
66 2 0.485011 0.472358 0.501281
118 2 0.481759 0.500062 0.506867
110 2 0.480882 0.479293 0.51631
74 1 0.495666 0.496987 0.514415
131 2 0.496938 0.478948 0.516944
103 2 0.464075 0.48773 0.529379
15 2 0.514263 0.469245 0.515359
109 2 0.506509 0.485943 0.503999
141 2 0.51159 0.485236 0.524586
78 2 0.513623 0.500647 0.5068
133 2 0.522216 0.482444 0.510942
31 1 0.533977 0.4788 0.521912
62 1 0.539683 0.480966 0.502001
105 1 0.536613 0.494597 0.510904
65 1 0.456955 0.507179 0.511951
37 1 0.46399 0.524599 0.515913
123 1 0.473789 0.503325 0.535236
122 2 0.473269 0.517325 0.50464
81 2 0.474917 0.508892 0.519977
84 2 0.487796 0.516105 0.510962
68 2 0.50004 0.524186 0.520302
85 2 0.482347 0.494262 0.523964
70 1 0.48084 0.523018 0.52554
132 2 0.507109 0.50129 0.524665
58 2 0.526657 0.51072 0.508389
88 2 0.503275 0.512082 0.508985
41 1 0.516618 0.515772 0.521628
93 2 0.521652 0.497275 0.520039
99 2 0.514151 0.523859 0.507482
106 2 0.532661 0.524649 0.517485
27 1 0.543008 0.511187 0.502812
120 1 0.534507 0.50775 0.524651
87 1 0.477635 0.531143 0.511214
52 2 0.496782 0.531776 0.504573
127 1 0.485445 0.544607 0.50413
83 2 0.49269 0.538366 0.519273
89 1 0.501291 0.548661 0.507669
96 2 0.511464 0.536262 0.516801
134 1 0.518639 0.548625 0.510319
100 1 0.525275 0.536285 0.526116
101 1 0.530496 0.537474 0.506802
114 2 0.489834 0.476034 0.53142
116 2 0.496558 0.490432 0.530874
117 1 0.478315 0.48782 0.541754
124 1 0.489389 0.499757 0.54321
112 1 0.521782 0.475129 0.531772
136 1 0.53311 0.493418 0.53124
119 1 0.518199 0.489577 0.540896
63 1 0.503778 0.478735 0.540371
102 2 0.49012 0.507347 0.526347
121 1 0.504858 0.499082 0.544193
139 1 0.48464 0.514207 0.540057
135 1 0.494424 0.529269 0.53744
138 1 0.526965 0.521201 0.536405
92 2 0.520295 0.506989 0.534927
128 2 0.503273 0.51461 0.535403
98 1 0.511573 0.528595 0.531912
ITEM: TIMESTEP
60000
ITEM: NUMBER OF ATOMS
141
ITEM: BOX BOUNDS pp pp pp
0.0000000000000000e+00 1.4356000000000000e+02
0.0000000000000000e+00 1.4356000000000000e+02
0.0000000000000000e+00 1.4356000000000000e+02
ITEM: ATOMS id type xs ys zs
42 1 0.487901 0.466954 0.463277
8 2 0.506381 0.471335 0.469601
49 1 0.467966 0.492275 0.469135
9 2 0.479786 0.48613 0.457925
6 2 0.492773 0.498644 0.456222
30 1 0.498394 0.478681 0.456292
51 1 0.475806 0.504326 0.461964
18 1 0.516569 0.47911 0.459032
17 1 0.524447 0.492255 0.465394
53 1 0.509749 0.494611 0.456291
10 2 0.481139 0.519386 0.469572
56 2 0.492151 0.513893 0.459935
34 2 0.468416 0.505956 0.478853
40 2 0.505136 0.504768 0.467776
46 1 0.507969 0.518689 0.457128
1 1 0.520721 0.508548 0.46166
44 1 0.518244 0.528844 0.468152
50 1 0.501771 0.534107 0.461225
39 1 0.463286 0.476682 0.48594
20 2 0.490127 0.465123 0.492592
47 1 0.480071 0.462911 0.480267
16 1 0.499881 0.45945 0.480483
5 2 0.516506 0.462448 0.482066
61 1 0.505502 0.459679 0.497039
75 1 0.535075 0.470861 0.483247
79 1 0.459685 0.494855 0.486342
111 1 0.451933 0.490429 0.500073
82 1 0.466902 0.499315 0.500392
19 1 0.473985 0.475234 0.469516
2 2 0.475779 0.491395 0.482995
11 2 0.492376 0.475112 0.477114
67 2 0.48246 0.478526 0.489052
3 2 0.491606 0.488689 0.468362
22 2 0.492602 0.491427 0.484267
72 2 0.49589 0.485221 0.499368
108 2 0.504761 0.474783 0.487509
12 2 0.508547 0.487686 0.473814
13 2 0.509632 0.490177 0.490217
73 2 0.523395 0.478569 0.473606
4 2 0.518519 0.497601 0.478762
64 2 0.520958 0.478125 0.491859
76 2 0.524546 0.494379 0.498698
90 2 0.531435 0.488552 0.482898
62 1 0.538061 0.48102 0.498398
91 2 0.540834 0.497573 0.491749
36 1 0.455027 0.509284 0.49005
65 1 0.454064 0.508788 0.50635
122 2 0.471904 0.517327 0.500411
33 2 0.471493 0.520752 0.483887
7 2 0.48585 0.503619 0.474396
24 2 0.487669 0.521199 0.484588
48 2 0.488467 0.519461 0.499878
28 1 0.4807 0.506479 0.491468
26 2 0.503964 0.520655 0.490062
55 2 0.500009 0.520485 0.473201
54 2 0.501168 0.505015 0.48297
32 2 0.513082 0.505844 0.494536
43 1 0.515304 0.51311 0.47869
104 2 0.516443 0.521358 0.499507
94 2 0.528914 0.507637 0.490572
45 1 0.529188 0.52259 0.478194
29 1 0.533359 0.505794 0.472727
77 1 0.544012 0.514632 0.487363
35 2 0.478924 0.53463 0.489685
107 1 0.487201 0.534338 0.471905
97 2 0.4961 0.535546 0.490008
69 2 0.516349 0.529161 0.487156
89 1 0.509437 0.545722 0.490298
140 1 0.506969 0.536538 0.476791
38 1 0.524879 0.540316 0.479665
57 2 0.530421 0.525676 0.494429
59 1 0.47164 0.466936 0.498539
21 1 0.494854 0.452448 0.510278
125 2 0.481221 0.461851 0.513538
25 2 0.498607 0.468282 0.510717
60 2 0.525579 0.462556 0.498099
113 1 0.493166 0.465565 0.525929
130 1 0.510128 0.455592 0.513659
15 2 0.509439 0.469093 0.522715
115 1 0.524583 0.466794 0.51387
23 1 0.467082 0.483419 0.499858
137 2 0.461312 0.492386 0.514902
129 2 0.46827 0.476708 0.514193
117 1 0.469853 0.483636 0.53109
14 2 0.482476 0.478174 0.521944
71 2 0.482806 0.492698 0.499304
66 2 0.483258 0.47511 0.50564
110 2 0.478115 0.491772 0.51481
74 1 0.499669 0.48113 0.519783
85 2 0.488726 0.491968 0.528208
131 2 0.487958 0.478846 0.536836
116 2 0.507566 0.497352 0.523604
109 2 0.509683 0.476597 0.503415
141 2 0.517453 0.48495 0.526112
93 2 0.5239 0.498876 0.519366
78 2 0.508651 0.492753 0.507631
133 2 0.522865 0.482508 0.510203
112 1 0.527971 0.472628 0.531675
31 1 0.538104 0.474901 0.51631
105 1 0.537312 0.493681 0.509322
119 1 0.534222 0.487264 0.52667
126 2 0.467611 0.507481 0.515812
37 1 0.461096 0.524433 0.517358
81 2 0.470135 0.519634 0.529097
86 1 0.497157 0.503452 0.498803
103 2 0.472158 0.499202 0.529049
118 2 0.483016 0.505845 0.508699
84 2 0.494667 0.517559 0.512766
68 2 0.477707 0.522395 0.515102
102 2 0.494006 0.495006 0.514079
135 1 0.48438 0.511226 0.526811
52 2 0.50315 0.530485 0.50428
132 2 0.515441 0.512404 0.527864
58 2 0.524277 0.509078 0.507355
88 2 0.50843 0.508794 0.512409
99 2 0.51584 0.523019 0.51578
96 2 0.502328 0.521106 0.526968
41 1 0.531456 0.523536 0.528477
106 2 0.533907 0.523944 0.510924
27 1 0.540748 0.508797 0.503425
120 1 0.538236 0.509751 0.520477
80 1 0.468255 0.532656 0.50488
87 1 0.485675 0.536157 0.506015
127 1 0.496827 0.548054 0.503378
83 2 0.490134 0.530342 0.521161
70 1 0.471032 0.537007 0.525688
95 2 0.519922 0.536443 0.505819
134 1 0.507735 0.536524 0.519569
101 1 0.523886 0.537278 0.522451
63 1 0.504765 0.471554 0.538395
123 1 0.481205 0.490865 0.543394
124 1 0.493906 0.503051 0.550369
114 2 0.503056 0.488414 0.537572
121 1 0.524754 0.489084 0.541097
139 1 0.480093 0.509712 0.541863
128 2 0.497466 0.505805 0.534173
98 1 0.485809 0.524955 0.53685
92 2 0.512763 0.501674 0.540026
138 1 0.503923 0.518761 0.543692
136 1 0.528987 0.507512 0.537323
100 1 0.515907 0.52935 0.534771
ITEM: TIMESTEP
65000
ITEM: NUMBER OF ATOMS
141
ITEM: BOX BOUNDS pp pp pp
0.0000000000000000e+00 1.4356000000000000e+02
0.0000000000000000e+00 1.4356000000000000e+02
0.0000000000000000e+00 1.4356000000000000e+02
ITEM: ATOMS id type xs ys zs
19 1 0.488678 0.465607 0.465353
42 1 0.506483 0.466028 0.468503
49 1 0.467748 0.488221 0.469956
9 2 0.48342 0.486587 0.464506
30 1 0.475247 0.473142 0.473158
3 2 0.498215 0.48002 0.459053
6 2 0.490396 0.4929 0.451396
18 1 0.52062 0.478082 0.464636
53 1 0.509179 0.492256 0.454201
17 1 0.519334 0.498587 0.466425
40 2 0.49646 0.500494 0.4654
73 2 0.538648 0.481851 0.475968
51 1 0.47525 0.499323 0.459898
46 1 0.488847 0.510533 0.453934
50 1 0.495392 0.526589 0.456181
1 1 0.504882 0.513001 0.457092
44 1 0.510456 0.525507 0.46825
59 1 0.470527 0.468087 0.499012
20 2 0.496239 0.463135 0.483794
47 1 0.477988 0.461442 0.483662
16 1 0.512858 0.457694 0.482274
5 2 0.520405 0.461759 0.497043
8 2 0.525204 0.47079 0.481664
39 1 0.464787 0.475885 0.483571
79 1 0.46189 0.496513 0.485608
23 1 0.466237 0.486177 0.497741
2 2 0.477906 0.490902 0.481145
11 2 0.491423 0.476715 0.476154
67 2 0.478943 0.477082 0.48868
22 2 0.492773 0.492851 0.479225
72 2 0.496457 0.482982 0.491595
71 2 0.483014 0.494003 0.496291
108 2 0.508332 0.476627 0.482208
12 2 0.50619 0.487851 0.471834
13 2 0.506829 0.492857 0.487074
4 2 0.52205 0.487176 0.479594
64 2 0.520196 0.479307 0.496011
76 2 0.522868 0.496328 0.496966
75 1 0.537818 0.471806 0.493265
90 2 0.534067 0.487809 0.490102
62 1 0.542539 0.480365 0.505534
36 1 0.459797 0.513014 0.490344
82 1 0.462321 0.503081 0.502383
10 2 0.468483 0.523694 0.480834
34 2 0.467059 0.508491 0.473995
122 2 0.475023 0.520153 0.49703
56 2 0.478345 0.518404 0.464662
55 2 0.493728 0.518782 0.471016
7 2 0.483401 0.50686 0.473391
24 2 0.484229 0.520926 0.484484
28 1 0.47424 0.506399 0.488966
86 1 0.49291 0.506631 0.48761
43 1 0.521868 0.515008 0.467305
54 2 0.507583 0.507826 0.476098
32 2 0.510845 0.509331 0.492847
69 2 0.501713 0.520828 0.486126
57 2 0.519789 0.52175 0.484219
94 2 0.522984 0.505277 0.482264
29 1 0.534442 0.497952 0.471287
91 2 0.536881 0.505561 0.492823
45 1 0.536233 0.514464 0.476736
77 1 0.53718 0.523608 0.493694
33 2 0.479046 0.534956 0.484945
107 1 0.477742 0.534573 0.469594
97 2 0.494573 0.535441 0.493266
140 1 0.49569 0.535483 0.475039
89 1 0.523026 0.534612 0.494297
38 1 0.511156 0.537343 0.481702
127 1 0.509051 0.543977 0.498767
61 1 0.506047 0.452965 0.501003
21 1 0.498617 0.464282 0.514546
125 2 0.487573 0.468123 0.49776
60 2 0.530077 0.468512 0.508256
130 1 0.516011 0.457516 0.515961
15 2 0.514059 0.472747 0.510836
111 1 0.455099 0.487204 0.510992
137 2 0.457649 0.504182 0.518442
129 2 0.467153 0.476084 0.515593
117 1 0.465443 0.488557 0.528681
14 2 0.48227 0.465525 0.513175
66 2 0.480315 0.481087 0.505061
110 2 0.471337 0.493357 0.512213
85 2 0.487509 0.494702 0.51371
102 2 0.499096 0.498894 0.501636
25 2 0.495571 0.479812 0.507671
131 2 0.480634 0.481479 0.521892
115 1 0.524121 0.473601 0.525547
109 2 0.504842 0.468906 0.495909
74 1 0.498111 0.482821 0.524114
141 2 0.515369 0.48729 0.519694
78 2 0.509378 0.487229 0.503371
133 2 0.528806 0.486107 0.509157
119 1 0.533593 0.491941 0.525084
31 1 0.539594 0.47653 0.523121
105 1 0.543658 0.497072 0.507192
65 1 0.459826 0.520744 0.507411
37 1 0.470746 0.534062 0.514641
48 2 0.492363 0.52087 0.498706
103 2 0.475196 0.503404 0.525778
126 2 0.472795 0.512706 0.511977
118 2 0.485951 0.508646 0.505055
68 2 0.484522 0.524601 0.514744
135 1 0.490325 0.509641 0.523748
81 2 0.471748 0.52082 0.526199
83 2 0.490172 0.52376 0.533943
26 2 0.509225 0.527628 0.500418
84 2 0.503785 0.513497 0.509649
116 2 0.502893 0.498843 0.520327
104 2 0.51791 0.520443 0.514102
93 2 0.529147 0.504152 0.512945
88 2 0.515332 0.502314 0.508529
99 2 0.505941 0.517403 0.527685
132 2 0.517488 0.502184 0.525628
58 2 0.524648 0.514178 0.498884
106 2 0.529893 0.529296 0.51012
41 1 0.530084 0.514492 0.525081
120 1 0.542886 0.504181 0.522096
27 1 0.539366 0.515385 0.508144
80 1 0.463408 0.532937 0.494949
35 2 0.48281 0.536592 0.502556
70 1 0.484766 0.53721 0.523853
52 2 0.499926 0.528278 0.512716
87 1 0.49584 0.545425 0.510258
95 2 0.515577 0.536554 0.514044
134 1 0.502781 0.538089 0.52647
101 1 0.520791 0.530185 0.528469
113 1 0.491451 0.466842 0.530378
123 1 0.475971 0.49324 0.542303
114 2 0.487939 0.494043 0.530026
63 1 0.493624 0.482026 0.541571
124 1 0.495021 0.499121 0.5498
112 1 0.508653 0.472854 0.530552
121 1 0.524958 0.486044 0.53603
92 2 0.507566 0.489021 0.537627
139 1 0.483401 0.508354 0.539537
98 1 0.494769 0.516846 0.549571
128 2 0.500547 0.504705 0.536185
138 1 0.512815 0.50311 0.548979
136 1 0.531022 0.501686 0.539489
100 1 0.518129 0.514411 0.539211
96 2 0.50641 0.526086 0.540786
ITEM: TIMESTEP
70000
ITEM: NUMBER OF ATOMS
141
ITEM: BOX BOUNDS pp pp pp
0.0000000000000000e+00 1.4356000000000000e+02
0.0000000000000000e+00 1.4356000000000000e+02
0.0000000000000000e+00 1.4356000000000000e+02
ITEM: ATOMS id type xs ys zs
3 2 0.502788 0.473477 0.463767
49 1 0.46889 0.48317 0.458895
30 1 0.48618 0.473674 0.467263
6 2 0.482862 0.492166 0.463449
18 1 0.51789 0.48327 0.463427
53 1 0.500223 0.488505 0.457214
17 1 0.532132 0.498355 0.466059
40 2 0.496043 0.502169 0.46695
51 1 0.480135 0.508355 0.458708
46 1 0.490535 0.520723 0.462421
1 1 0.515671 0.498178 0.457106
29 1 0.522133 0.517172 0.462661
44 1 0.504767 0.528605 0.467106
23 1 0.456874 0.47849 0.488425
47 1 0.481515 0.461769 0.477976
59 1 0.471 0.466074 0.492152
19 1 0.487464 0.458165 0.493071
20 2 0.49909 0.470217 0.482267
42 1 0.510643 0.460156 0.476715
16 1 0.505098 0.458077 0.494421
75 1 0.52217 0.462636 0.490373
79 1 0.46065 0.486287 0.474464
82 1 0.451127 0.496434 0.504678
2 2 0.470284 0.485726 0.490644
34 2 0.468312 0.500194 0.469503
11 2 0.494612 0.485547 0.474496
39 1 0.47183 0.474052 0.475002
9 2 0.478786 0.489669 0.478307
67 2 0.485378 0.476179 0.4869
72 2 0.50026 0.486229 0.492194
71 2 0.486192 0.49414 0.493063
102 2 0.499646 0.499334 0.500607
22 2 0.499387 0.500298 0.482502
109 2 0.510694 0.473734 0.496058
12 2 0.510689 0.496159 0.47245
108 2 0.510968 0.479445 0.479825
13 2 0.513566 0.499008 0.490427
4 2 0.524713 0.489627 0.47945
64 2 0.524791 0.483783 0.494912
8 2 0.525608 0.471639 0.474195
76 2 0.530455 0.498236 0.49526
73 2 0.539175 0.487265 0.485855
90 2 0.53502 0.471899 0.488423
36 1 0.455165 0.494178 0.487902
10 2 0.464822 0.514059 0.478198
28 1 0.470152 0.502366 0.487658
65 1 0.457269 0.510754 0.492532
107 1 0.460667 0.528028 0.487768
56 2 0.478835 0.522253 0.474694
122 2 0.475066 0.519976 0.49229
55 2 0.494686 0.517753 0.480079
7 2 0.483313 0.504787 0.477298
24 2 0.488991 0.529437 0.491742
86 1 0.489348 0.512015 0.495202
48 2 0.500942 0.52715 0.502831
54 2 0.507349 0.512919 0.471437
32 2 0.506852 0.513643 0.490844
57 2 0.516188 0.52241 0.479875
94 2 0.522415 0.506554 0.47517
58 2 0.525033 0.512137 0.489664
91 2 0.53823 0.503091 0.4815
45 1 0.533792 0.518985 0.474589
77 1 0.542227 0.513097 0.49779
50 1 0.490397 0.534399 0.476003
97 2 0.493709 0.544331 0.490607
140 1 0.476073 0.537874 0.492609
43 1 0.524793 0.533046 0.472313
26 2 0.517815 0.526042 0.495445
69 2 0.504303 0.531988 0.48544
38 1 0.51052 0.54248 0.474945
127 1 0.522096 0.538913 0.486385
87 1 0.509579 0.543975 0.497287
89 1 0.534101 0.527498 0.490756
111 1 0.471924 0.47349 0.519678
21 1 0.48113 0.461836 0.507907
113 1 0.49721 0.467251 0.531145
61 1 0.498589 0.459122 0.509571
5 2 0.516454 0.461605 0.506221
130 1 0.513784 0.459606 0.52361
115 1 0.525375 0.470887 0.525191
62 1 0.53297 0.464543 0.502893
117 1 0.461166 0.478142 0.504581
123 1 0.46167 0.49228 0.518707
125 2 0.493334 0.472408 0.500796
110 2 0.469832 0.494834 0.504286
14 2 0.489363 0.474075 0.517247
66 2 0.477147 0.478097 0.50319
85 2 0.479093 0.487627 0.517061
25 2 0.493574 0.487371 0.509857
114 2 0.488592 0.497663 0.52818
74 1 0.499656 0.484002 0.525695
116 2 0.503884 0.499493 0.516602
15 2 0.505989 0.4743 0.513538
60 2 0.521923 0.477207 0.510092
141 2 0.518184 0.486701 0.523264
78 2 0.511737 0.489587 0.505866
133 2 0.527598 0.492138 0.511013
121 1 0.514249 0.477161 0.535851
31 1 0.539129 0.481398 0.503409
119 1 0.536861 0.481906 0.520222
120 1 0.536359 0.498902 0.525444
137 2 0.458593 0.508106 0.514087
80 1 0.46211 0.523257 0.50378
126 2 0.474363 0.5107 0.504319
103 2 0.474149 0.504443 0.519705
118 2 0.486646 0.501181 0.510953
68 2 0.485158 0.525408 0.509091
135 1 0.48523 0.516144 0.523569
81 2 0.470016 0.521153 0.518201
52 2 0.497919 0.526384 0.518159
84 2 0.498534 0.513217 0.510731
104 2 0.513804 0.519687 0.514332
88 2 0.51505 0.508414 0.504264
99 2 0.504582 0.514082 0.526659
132 2 0.520441 0.505225 0.521451
41 1 0.522405 0.517225 0.532482
93 2 0.531931 0.50804 0.509702
106 2 0.528585 0.52289 0.506613
105 1 0.54628 0.496549 0.508942
27 1 0.535234 0.516376 0.5238
33 2 0.471982 0.535567 0.508122
37 1 0.481209 0.535648 0.524978
35 2 0.488839 0.541631 0.506566
70 1 0.496445 0.542695 0.520726
95 2 0.524534 0.538027 0.503906
134 1 0.510793 0.536897 0.512346
101 1 0.524698 0.530598 0.520822
112 1 0.498069 0.48279 0.541708
129 2 0.483506 0.480201 0.534815
131 2 0.486442 0.494081 0.54485
124 1 0.470856 0.490118 0.53348
63 1 0.515932 0.489562 0.54557
92 2 0.506579 0.497539 0.533958
136 1 0.530044 0.486085 0.534455
100 1 0.524313 0.502003 0.538556
83 2 0.497349 0.524393 0.537219
139 1 0.477089 0.506838 0.536192
128 2 0.493974 0.508998 0.53838
138 1 0.501045 0.500315 0.551249
98 1 0.511204 0.511486 0.544861
96 2 0.51036 0.531102 0.529691
ITEM: TIMESTEP
75000
ITEM: NUMBER OF ATOMS
141
ITEM: BOX BOUNDS pp pp pp
0.0000000000000000e+00 1.4356000000000000e+02
0.0000000000000000e+00 1.4356000000000000e+02
0.0000000000000000e+00 1.4356000000000000e+02
ITEM: ATOMS id type xs ys zs
49 1 0.480561 0.490416 0.459735
30 1 0.488982 0.469223 0.470894
6 2 0.479168 0.508112 0.469482
53 1 0.499744 0.481832 0.458142
3 2 0.506869 0.470493 0.467874
18 1 0.519578 0.485606 0.462349
12 2 0.509294 0.494847 0.471041
17 1 0.513991 0.504057 0.457891
40 2 0.493679 0.498044 0.465364
51 1 0.474266 0.522454 0.476211
46 1 0.4914 0.518669 0.461095
1 1 0.523559 0.517046 0.462671
29 1 0.530221 0.499989 0.462392
44 1 0.509054 0.528693 0.466571
23 1 0.462991 0.467778 0.483027
59 1 0.47408 0.462748 0.494053
47 1 0.487933 0.460028 0.485259
19 1 0.491385 0.450706 0.501449
20 2 0.5001 0.469576 0.483
42 1 0.516793 0.461253 0.480131
16 1 0.504758 0.457596 0.493376
75 1 0.520539 0.459034 0.499706
90 2 0.527578 0.470271 0.489699
34 2 0.466004 0.498479 0.475478
79 1 0.454088 0.483841 0.478417
82 1 0.453429 0.483922 0.494139
36 1 0.449173 0.500391 0.48462
28 1 0.461798 0.50212 0.492368
39 1 0.470595 0.479281 0.472171
2 2 0.470154 0.486944 0.48753
11 2 0.497421 0.484273 0.474119
9 2 0.482134 0.492933 0.477616
67 2 0.481793 0.474787 0.483858
71 2 0.486103 0.493985 0.494921
72 2 0.499828 0.484925 0.490601
22 2 0.496165 0.50033 0.481814
109 2 0.512281 0.475282 0.495405
102 2 0.501994 0.498858 0.498509
108 2 0.513251 0.480036 0.480957
13 2 0.514303 0.496063 0.488799
4 2 0.526222 0.491278 0.476869
64 2 0.526144 0.486635 0.493684
76 2 0.530796 0.502459 0.489599
8 2 0.52819 0.474079 0.474189
73 2 0.53967 0.483386 0.482757
31 1 0.541924 0.478223 0.500248
10 2 0.460235 0.514381 0.481657
80 1 0.455687 0.516076 0.499325
122 2 0.471415 0.519295 0.495405
55 2 0.491204 0.515687 0.478359
7 2 0.478126 0.506052 0.486081
86 1 0.492427 0.511433 0.495617
69 2 0.502464 0.527456 0.485305
54 2 0.505571 0.511853 0.471907
32 2 0.508169 0.512107 0.489589
57 2 0.517982 0.522916 0.479186
94 2 0.520503 0.50624 0.476901
58 2 0.52717 0.516759 0.493013
26 2 0.514148 0.525643 0.496604
91 2 0.541678 0.500334 0.477774
45 1 0.53401 0.515031 0.477019
77 1 0.54465 0.511945 0.49319
106 2 0.535728 0.526069 0.50429
107 1 0.462599 0.530036 0.486669
56 2 0.491949 0.530741 0.473162
50 1 0.499355 0.545972 0.480247
24 2 0.486816 0.525906 0.489759
140 1 0.479781 0.540635 0.483162
97 2 0.491884 0.539281 0.495123
43 1 0.528299 0.532017 0.469725
38 1 0.514833 0.539826 0.478375
127 1 0.508387 0.544517 0.49364
89 1 0.528293 0.532754 0.489341
21 1 0.479831 0.46295 0.509548
61 1 0.494231 0.459075 0.524254
113 1 0.477343 0.466882 0.526472
130 1 0.509816 0.469521 0.528349
5 2 0.503421 0.460435 0.510484
115 1 0.530243 0.478749 0.523651
62 1 0.518385 0.464316 0.516405
117 1 0.464707 0.473628 0.499606
123 1 0.456782 0.484467 0.51634
110 2 0.467665 0.490096 0.503239
111 1 0.471613 0.478155 0.515318
125 2 0.49453 0.47022 0.498693
14 2 0.489401 0.473641 0.517191
66 2 0.480488 0.479404 0.50104
85 2 0.477628 0.493794 0.516001
25 2 0.494311 0.487356 0.509603
74 1 0.500251 0.484508 0.526212
116 2 0.506375 0.499442 0.516119
15 2 0.50696 0.476342 0.511498
60 2 0.526159 0.476607 0.506566
141 2 0.517551 0.485963 0.520904
78 2 0.514672 0.488816 0.504257
133 2 0.53034 0.491251 0.512139
105 1 0.543977 0.494003 0.495425
119 1 0.54698 0.491494 0.510137
120 1 0.5357 0.494874 0.526923
65 1 0.450075 0.497671 0.506144
137 2 0.463922 0.502824 0.513968
81 2 0.467796 0.519673 0.510781
126 2 0.475781 0.504825 0.50211
114 2 0.493946 0.502205 0.526726
103 2 0.47933 0.510435 0.522696
118 2 0.49154 0.504993 0.509967
68 2 0.483344 0.520917 0.506062
135 1 0.493688 0.518415 0.520592
52 2 0.50989 0.525768 0.514987
84 2 0.505822 0.512655 0.507153
104 2 0.524089 0.51757 0.513744
88 2 0.518757 0.504521 0.501871
99 2 0.509606 0.514248 0.527395
132 2 0.521141 0.502562 0.519008
41 1 0.52263 0.523414 0.532236
93 2 0.53529 0.506976 0.509559
27 1 0.535858 0.511988 0.52609
101 1 0.532246 0.532707 0.519176
33 2 0.474263 0.533575 0.504637
37 1 0.481063 0.529024 0.520758
35 2 0.487558 0.540436 0.510557
70 1 0.496875 0.533616 0.521676
48 2 0.499999 0.526598 0.501227
87 1 0.503979 0.542126 0.508879
95 2 0.520506 0.535805 0.508415
134 1 0.515324 0.538658 0.525935
124 1 0.468902 0.494445 0.529676
129 2 0.48388 0.485994 0.52857
138 1 0.495061 0.49241 0.542509
112 1 0.49272 0.472742 0.534854
121 1 0.510139 0.482611 0.540269
63 1 0.511124 0.498623 0.546193
92 2 0.51081 0.497613 0.531324
136 1 0.524539 0.490203 0.536476
139 1 0.464448 0.513047 0.53068
131 2 0.481808 0.502635 0.538857
128 2 0.498672 0.509291 0.540151
83 2 0.486874 0.520057 0.535078
96 2 0.504248 0.527485 0.536399
98 1 0.513114 0.516347 0.544795
100 1 0.524094 0.506832 0.537133
ITEM: TIMESTEP
80000
ITEM: NUMBER OF ATOMS
141
ITEM: BOX BOUNDS pp pp pp
0.0000000000000000e+00 1.4356000000000000e+02
0.0000000000000000e+00 1.4356000000000000e+02
0.0000000000000000e+00 1.4356000000000000e+02
ITEM: ATOMS id type xs ys zs
49 1 0.484148 0.492808 0.458369
53 1 0.495961 0.482059 0.459174
17 1 0.500525 0.496012 0.452279
40 2 0.49492 0.504801 0.466923
18 1 0.518403 0.487401 0.458114
8 2 0.512595 0.475355 0.468321
34 2 0.467518 0.501758 0.466649
6 2 0.48206 0.51089 0.458859
46 1 0.50425 0.515047 0.457629
56 2 0.490712 0.522868 0.47009
1 1 0.520994 0.519484 0.464885
12 2 0.514455 0.503569 0.463753
44 1 0.504543 0.529304 0.467449
29 1 0.535953 0.50661 0.475706
43 1 0.521582 0.536201 0.46922
23 1 0.491393 0.455976 0.479724
47 1 0.494632 0.453477 0.496002
19 1 0.478984 0.457892 0.493673
20 2 0.503251 0.464016 0.487129
42 1 0.516076 0.458039 0.478606
16 1 0.511707 0.451662 0.494872
90 2 0.522569 0.464955 0.492346
3 2 0.496629 0.472304 0.472485
79 1 0.460636 0.48922 0.481517
82 1 0.455653 0.499353 0.497984
110 2 0.463509 0.482686 0.497471
59 1 0.468786 0.474285 0.482383
39 1 0.474344 0.483073 0.469918
30 1 0.480163 0.46644 0.472445
2 2 0.477692 0.487321 0.488207
9 2 0.491292 0.48689 0.476379
67 2 0.486773 0.472125 0.48636
72 2 0.49795 0.48411 0.494165
4 2 0.524365 0.492942 0.474785
11 2 0.506065 0.490387 0.47149
108 2 0.508706 0.478321 0.482672
13 2 0.513144 0.496581 0.488491
64 2 0.523257 0.483378 0.491149
73 2 0.5284 0.473562 0.480045
91 2 0.537066 0.487451 0.481354
31 1 0.539756 0.47743 0.496124
105 1 0.54571 0.493052 0.495028