ITEM: TIMESTEP
6650000
ITEM: NUMBER OF ATOMS
141
ITEM: BOX BOUNDS pp pp pp
0.0000000000000000e+00 1.4356000000000000e+02
0.0000000000000000e+00 1.4356000000000000e+02
0.0000000000000000e+00 1.4356000000000000e+02
ITEM: ATOMS id type xs ys zs
111 1 0.499097 0.469039 0.469687
119 1 0.498571 0.484974 0.462057
80 1 0.485767 0.471834 0.460936
99 2 0.475466 0.482608 0.467543
21 1 0.484325 0.495657 0.458327
17 1 0.513363 0.491994 0.463373
27 1 0.515453 0.476558 0.467055
130 1 0.529052 0.484692 0.464854
61 1 0.540541 0.496456 0.468477
77 1 0.468364 0.500025 0.470248
112 1 0.479885 0.51144 0.46341
76 2 0.497918 0.514272 0.46831
132 2 0.484923 0.526351 0.469382
82 1 0.503277 0.501476 0.457134
41 1 0.5251 0.504317 0.45921
136 1 0.514279 0.517777 0.463073
123 1 0.505397 0.531497 0.467629
5 2 0.484081 0.466216 0.490138
79 1 0.493674 0.455186 0.483257
138 1 0.480217 0.466411 0.47473
67 2 0.508988 0.459297 0.492677
115 1 0.526932 0.456906 0.489781
105 1 0.528685 0.468897 0.475787
102 2 0.512141 0.463619 0.477838
95 2 0.521065 0.469656 0.498656
57 2 0.537447 0.470196 0.491226
86 1 0.468911 0.479064 0.483465
100 1 0.468456 0.493888 0.497233
60 2 0.466181 0.475769 0.498616
12 2 0.459794 0.49398 0.482483
122 2 0.494252 0.496359 0.471977
25 2 0.498019 0.471192 0.488006
64 2 0.487886 0.481343 0.477119
15 2 0.479787 0.493407 0.481858
131 2 0.480108 0.481803 0.495846
2 2 0.494158 0.488631 0.490939
92 2 0.523766 0.494787 0.477146
52 2 0.50539 0.485613 0.478558
129 2 0.511162 0.495001 0.491464
58 2 0.519731 0.481983 0.485817
56 2 0.505315 0.481272 0.499151
126 2 0.531023 0.498232 0.493547
137 2 0.536663 0.485427 0.48161
134 1 0.548814 0.492624 0.488746
116 2 0.530975 0.482718 0.498649
107 1 0.462493 0.523211 0.493242
128 2 0.454606 0.50787 0.495688
114 2 0.469507 0.508631 0.487831
32 2 0.470885 0.520799 0.476968
73 2 0.484558 0.501715 0.494741
14 2 0.481196 0.518909 0.493045
55 2 0.485584 0.5096 0.480357
35 2 0.494455 0.522583 0.482092
3 2 0.495791 0.515955 0.498089
45 1 0.52885 0.514821 0.471269
110 2 0.510604 0.504096 0.475137
90 2 0.521834 0.528165 0.475429
68 2 0.500087 0.504966 0.486854
109 2 0.508964 0.519245 0.482372
66 2 0.511768 0.511367 0.498343
53 1 0.523842 0.511067 0.48577
71 2 0.50754 0.527544 0.495845
49 1 0.524762 0.526553 0.493511
18 1 0.540267 0.505656 0.482269
84 2 0.538784 0.516854 0.495612
62 1 0.537661 0.527378 0.479495
85 2 0.479397 0.534011 0.484554
29 1 0.490616 0.551333 0.495275
37 1 0.494547 0.540699 0.478317
83 2 0.491763 0.533443 0.494442
33 2 0.511565 0.5379 0.48395
75 1 0.520425 0.542264 0.498329
39 1 0.491681 0.455893 0.502258
23 1 0.475827 0.464533 0.509916
69 2 0.48644 0.458277 0.519178
89 1 0.501082 0.451535 0.514653
65 1 0.520261 0.454107 0.504293
98 1 0.504398 0.461312 0.529362
28 1 0.51867 0.463505 0.518505
24 2 0.505088 0.46718 0.508763
124 1 0.533627 0.467853 0.508991
63 1 0.456099 0.479399 0.515228
31 1 0.454649 0.494576 0.508041
70 1 0.462678 0.490429 0.525505
20 2 0.490717 0.473916 0.505604
4 2 0.474003 0.474505 0.522626
22 2 0.471999 0.483061 0.51056
72 2 0.485309 0.490566 0.508567
88 2 0.482392 0.488002 0.524581
108 2 0.491059 0.472105 0.52355
26 2 0.497978 0.486866 0.529091
7 2 0.518954 0.480349 0.512088
10 2 0.502352 0.483942 0.514191
48 2 0.509969 0.476463 0.526041
81 2 0.520795 0.495827 0.505237
6 2 0.513717 0.495841 0.523062
11 2 0.500611 0.49893 0.50495
40 2 0.531425 0.488674 0.516947
113 1 0.547303 0.485088 0.50721
51 1 0.456138 0.509862 0.514806
42 1 0.45928 0.525455 0.510486
19 1 0.461677 0.527052 0.528865
8 2 0.468086 0.510895 0.502806
54 2 0.472292 0.500459 0.514161
103 2 0.473647 0.51627 0.516955
133 2 0.486996 0.507533 0.511027
104 2 0.486325 0.524825 0.509256
13 2 0.49136 0.519191 0.524663
94 2 0.481367 0.506626 0.528503
106 2 0.497071 0.501082 0.521322
96 2 0.527164 0.511039 0.503778
141 2 0.502704 0.514095 0.512186
125 2 0.5165 0.50953 0.516513
9 2 0.517244 0.52463 0.508775
93 2 0.5292 0.503838 0.523811
78 2 0.508308 0.524354 0.523914
127 1 0.526407 0.524339 0.523087
30 1 0.543494 0.502786 0.503716
87 1 0.542867 0.51513 0.513101
34 2 0.472912 0.533004 0.517866
91 2 0.473351 0.532956 0.500481
121 1 0.487353 0.535435 0.526013
36 1 0.485581 0.543059 0.510234
140 1 0.499907 0.549004 0.516837
43 1 0.504453 0.543365 0.502284
118 2 0.500114 0.531391 0.512483
139 1 0.514804 0.53985 0.515923
16 1 0.535743 0.531092 0.507499
44 1 0.484336 0.480607 0.539086
59 1 0.476269 0.497059 0.541459
46 1 0.49439 0.493689 0.543644
47 1 0.512808 0.489655 0.538441
135 1 0.501969 0.475589 0.541917
120 1 0.52682 0.481815 0.532497
1 1 0.465004 0.507192 0.531639
38 1 0.488821 0.509539 0.542026
117 1 0.476341 0.522078 0.534806
101 1 0.502346 0.520788 0.540763
97 2 0.50366 0.50401 0.534919
50 1 0.518142 0.512894 0.533404
74 1 0.501839 0.536891 0.535379
ITEM: TIMESTEP
6655000
ITEM: NUMBER OF ATOMS
141
ITEM: BOX BOUNDS pp pp pp
0.0000000000000000e+00 1.4356000000000000e+02
0.0000000000000000e+00 1.4356000000000000e+02
0.0000000000000000e+00 1.4356000000000000e+02
ITEM: ATOMS id type xs ys zs
130 1 0.510591 0.473061 0.462577
80 1 0.481361 0.472034 0.466644
99 2 0.480241 0.49373 0.465349
21 1 0.496591 0.494819 0.453347
27 1 0.496264 0.480308 0.459584
122 2 0.496111 0.495913 0.46969
17 1 0.527309 0.481409 0.467991
119 1 0.513311 0.490518 0.45839
45 1 0.525083 0.501873 0.465779
41 1 0.538059 0.488932 0.480862
77 1 0.474189 0.517472 0.464203
112 1 0.487193 0.508903 0.458151
76 2 0.497317 0.514762 0.470448
132 2 0.48643 0.526173 0.467965
82 1 0.509524 0.506294 0.456789
136 1 0.503408 0.530493 0.465845
90 2 0.515968 0.517412 0.466915
111 1 0.498515 0.467246 0.472222
79 1 0.467828 0.46785 0.475258
67 2 0.48612 0.465988 0.483165
115 1 0.503564 0.456287 0.487317
105 1 0.518186 0.458682 0.49282
102 2 0.513543 0.468272 0.478739
57 2 0.530274 0.470457 0.500183
86 1 0.461329 0.471409 0.495351
12 2 0.468907 0.503429 0.472862
131 2 0.462347 0.489166 0.490152
138 1 0.468306 0.484421 0.473813
5 2 0.475518 0.477575 0.489379
64 2 0.489618 0.482896 0.476381
15 2 0.478446 0.492112 0.484107
2 2 0.49642 0.493743 0.485511
110 2 0.510035 0.501815 0.473566
25 2 0.500888 0.474679 0.48785
92 2 0.522877 0.493924 0.480146
52 2 0.507683 0.484847 0.47472
129 2 0.51195 0.497708 0.490589
58 2 0.515438 0.480625 0.491493
116 2 0.542409 0.47941 0.493558
137 2 0.528677 0.47576 0.483737
61 1 0.539294 0.504832 0.478718
113 1 0.547557 0.49584 0.509415
100 1 0.454689 0.501159 0.50134
128 2 0.461717 0.521994 0.500776
32 2 0.473394 0.520537 0.478737
114 2 0.468224 0.507802 0.488667
73 2 0.483686 0.505633 0.494526
55 2 0.483661 0.507609 0.477176
35 2 0.490722 0.522614 0.483798
85 2 0.476417 0.52124 0.494178
68 2 0.498429 0.508995 0.486379
109 2 0.507692 0.52357 0.481726
53 1 0.522292 0.51147 0.481516
11 2 0.498121 0.500747 0.49917
49 1 0.527463 0.529319 0.476806
134 1 0.532718 0.516489 0.468378
126 2 0.529138 0.489862 0.494816
18 1 0.535012 0.519152 0.491351
30 1 0.540946 0.502297 0.494122
107 1 0.463551 0.531759 0.487936
123 1 0.498028 0.537591 0.480666
29 1 0.478187 0.538192 0.48194
91 2 0.487887 0.532043 0.496868
36 1 0.485932 0.547707 0.492609
37 1 0.515617 0.537266 0.472301
43 1 0.514471 0.541721 0.488909
33 2 0.520271 0.526374 0.492483
70 1 0.46856 0.463421 0.512949
60 2 0.474891 0.46156 0.497114
39 1 0.488343 0.450173 0.496013
23 1 0.485152 0.456371 0.511866
89 1 0.500872 0.453917 0.504906
65 1 0.520456 0.459359 0.508987
24 2 0.512482 0.462137 0.522237
95 2 0.505406 0.46952 0.504398
63 1 0.457275 0.484104 0.507521
54 2 0.467792 0.480441 0.520618
20 2 0.490663 0.467683 0.500432
22 2 0.476325 0.476298 0.505911
72 2 0.487064 0.488428 0.498253
88 2 0.480733 0.491211 0.518492
108 2 0.492246 0.479866 0.510909
44 1 0.48056 0.47079 0.523052
8 2 0.472008 0.493515 0.503131
94 2 0.490849 0.498031 0.529078
69 2 0.497176 0.46622 0.518751
106 2 0.497814 0.494357 0.515983
56 2 0.504337 0.486186 0.501065
7 2 0.521747 0.481206 0.506808
10 2 0.509711 0.481626 0.51781
81 2 0.521923 0.490497 0.519817
26 2 0.508657 0.49112 0.530378
28 1 0.526298 0.472909 0.522187
124 1 0.53824 0.482353 0.512016
120 1 0.538934 0.49249 0.526681
31 1 0.46116 0.497464 0.517066
1 1 0.467166 0.495535 0.530426
51 1 0.461221 0.519013 0.518638
3 2 0.494056 0.518764 0.498721
14 2 0.469942 0.508843 0.506491
103 2 0.476649 0.508019 0.523165
133 2 0.486364 0.504027 0.509808
104 2 0.481005 0.520964 0.510582
13 2 0.493333 0.514967 0.525053
34 2 0.474668 0.526318 0.524483
118 2 0.495697 0.527404 0.512641
71 2 0.510496 0.514561 0.498528
84 2 0.524633 0.507649 0.496905
141 2 0.502532 0.512241 0.512474
66 2 0.513673 0.49785 0.509261
125 2 0.520058 0.511855 0.516611
9 2 0.513621 0.526989 0.510567
78 2 0.511084 0.523496 0.526056
40 2 0.530732 0.498536 0.508698
93 2 0.537252 0.507652 0.522671
96 2 0.539872 0.513 0.508238
87 1 0.537979 0.526448 0.519906
42 1 0.470033 0.535197 0.503381
121 1 0.484843 0.539295 0.512244
74 1 0.489762 0.531724 0.528439
140 1 0.50192 0.543884 0.504971
83 2 0.504317 0.529398 0.496113
75 1 0.51961 0.540074 0.503912
16 1 0.52293 0.536226 0.523298
139 1 0.505682 0.539306 0.521359
62 1 0.530574 0.525677 0.505533
4 2 0.494215 0.482212 0.527513
98 1 0.506412 0.472419 0.53336
46 1 0.477614 0.482445 0.536085
135 1 0.495633 0.488703 0.543779
48 2 0.523565 0.483547 0.534167
47 1 0.514506 0.497644 0.546388
19 1 0.465689 0.51214 0.536213
59 1 0.479768 0.499466 0.54042
38 1 0.498328 0.504111 0.542184
117 1 0.483052 0.516789 0.538672
101 1 0.500365 0.520462 0.539593
6 2 0.52554 0.502144 0.532042
127 1 0.528944 0.518586 0.52989
97 2 0.50654 0.505541 0.5272
50 1 0.514696 0.513184 0.539117
ITEM: TIMESTEP
6660000
ITEM: NUMBER OF ATOMS
141
ITEM: BOX BOUNDS pp pp pp
0.0000000000000000e+00 1.4356000000000000e+02
0.0000000000000000e+00 1.4356000000000000e+02
0.0000000000000000e+00 1.4356000000000000e+02
ITEM: ATOMS id type xs ys zs
99 2 0.475667 0.492789 0.464499
27 1 0.494644 0.480841 0.460369
122 2 0.501388 0.501229 0.465695
80 1 0.479482 0.47766 0.472058
21 1 0.507977 0.488506 0.454627
130 1 0.50624 0.469318 0.463593
119 1 0.521893 0.476428 0.461668
45 1 0.527731 0.493046 0.461284
12 2 0.469661 0.508594 0.469616
112 1 0.485967 0.502638 0.454231
132 2 0.495604 0.519311 0.462529
136 1 0.50224 0.509303 0.450483
82 1 0.516502 0.505222 0.458
76 2 0.509293 0.514506 0.479158
37 1 0.511977 0.519278 0.46117
79 1 0.465988 0.473677 0.480701
111 1 0.493343 0.467367 0.47267
67 2 0.481296 0.466523 0.485647
17 1 0.521544 0.465156 0.474777
39 1 0.500327 0.462313 0.486279
105 1 0.520026 0.461563 0.493737
24 2 0.502446 0.473049 0.498677
131 2 0.463213 0.486443 0.491408
138 1 0.460032 0.491203 0.474315
86 1 0.458139 0.471775 0.49848
5 2 0.478299 0.481629 0.490412
64 2 0.490249 0.489961 0.473517
15 2 0.475296 0.495368 0.480955
25 2 0.494015 0.476993 0.485144
72 2 0.490845 0.491752 0.491632
8 2 0.474075 0.497331 0.497727
11 2 0.500927 0.499805 0.501439
52 2 0.50596 0.486267 0.473275
102 2 0.510727 0.474443 0.4836
95 2 0.518136 0.479446 0.498845
92 2 0.521646 0.484565 0.475866
58 2 0.506922 0.487859 0.49047
126 2 0.526677 0.494795 0.490283
41 1 0.537278 0.480184 0.470105
137 2 0.529498 0.475832 0.486009
30 1 0.544286 0.487259 0.485481
116 2 0.543254 0.50309 0.494146
114 2 0.461291 0.503132 0.486779
107 1 0.459978 0.520701 0.492009
77 1 0.479156 0.522526 0.46368
55 2 0.486649 0.507127 0.470752
2 2 0.498642 0.502051 0.481529
32 2 0.476307 0.512249 0.484165
73 2 0.4873 0.506809 0.495751
35 2 0.491447 0.517147 0.482068
85 2 0.483188 0.523292 0.496902
29 1 0.472813 0.527854 0.481757
90 2 0.526133 0.511588 0.486499
129 2 0.513281 0.504331 0.490686
68 2 0.501135 0.516113 0.493593
110 2 0.518106 0.500736 0.475242
53 1 0.528737 0.52925 0.488821
84 2 0.530363 0.504255 0.502911
134 1 0.528227 0.515511 0.470203
61 1 0.535426 0.500705 0.476594
109 2 0.503706 0.528498 0.476869
33 2 0.513101 0.534908 0.494285
18 1 0.539535 0.518254 0.480489
62 1 0.537223 0.517192 0.498548
83 2 0.494745 0.534216 0.490705
123 1 0.486792 0.532924 0.475256
36 1 0.479524 0.543609 0.489116
49 1 0.519768 0.529962 0.470938
43 1 0.507562 0.543709 0.482584
140 1 0.50164 0.545253 0.501131
70 1 0.463695 0.4723 0.515854
60 2 0.473505 0.46533 0.499687
23 1 0.489544 0.461944 0.500497
44 1 0.482162 0.467616 0.515529
69 2 0.49914 0.467092 0.515067
115 1 0.504914 0.454926 0.50286
89 1 0.516722 0.466316 0.509161
65 1 0.533465 0.468687 0.505593
63 1 0.45633 0.487791 0.506821
31 1 0.459769 0.488801 0.522273
20 2 0.489298 0.478726 0.50394
54 2 0.474558 0.481411 0.525975
22 2 0.472875 0.483197 0.506896
88 2 0.470299 0.49874 0.513143
108 2 0.486738 0.493902 0.508362
94 2 0.483175 0.49486 0.524925
4 2 0.494031 0.483833 0.521844
106 2 0.499089 0.49852 0.518677
56 2 0.50483 0.485549 0.50832
7 2 0.522624 0.481446 0.513624
10 2 0.511173 0.478721 0.522711
81 2 0.515824 0.494047 0.521599
28 1 0.530368 0.469579 0.522844
66 2 0.515973 0.495998 0.504319
57 2 0.534571 0.485331 0.500402
113 1 0.55041 0.489673 0.503552
124 1 0.541448 0.482152 0.516522
40 2 0.532797 0.497247 0.517325
100 1 0.456341 0.503452 0.503427
128 2 0.464246 0.501787 0.532237
51 1 0.459582 0.513544 0.517324
14 2 0.472288 0.514834 0.503835
103 2 0.476188 0.513171 0.524886
133 2 0.487901 0.511302 0.511816
104 2 0.479497 0.525115 0.513068
13 2 0.49049 0.507976 0.528377
78 2 0.495708 0.523938 0.522054
3 2 0.49845 0.529863 0.50736
71 2 0.516283 0.519616 0.49931
118 2 0.511573 0.523911 0.517751
141 2 0.505015 0.513359 0.508763
125 2 0.519605 0.508949 0.514723
9 2 0.527268 0.530346 0.506793
97 2 0.50876 0.508446 0.527531
127 1 0.524305 0.521855 0.530377
93 2 0.525164 0.505137 0.529122
96 2 0.546461 0.505198 0.510593
87 1 0.534318 0.517298 0.516655
42 1 0.468199 0.53352 0.499582
91 2 0.4839 0.539821 0.505468
121 1 0.469309 0.540392 0.517972
139 1 0.499515 0.539948 0.521984
75 1 0.514366 0.544351 0.511727
16 1 0.518599 0.537422 0.526266
98 1 0.51303 0.46195 0.522892
46 1 0.486796 0.482897 0.537967
135 1 0.499191 0.467616 0.531579
59 1 0.483613 0.500157 0.543183
1 1 0.470676 0.488509 0.540916
26 2 0.498849 0.49342 0.535189
48 2 0.516818 0.473382 0.537204
47 1 0.502261 0.480451 0.543736
6 2 0.516334 0.493052 0.537739
120 1 0.528508 0.486234 0.529451
19 1 0.471903 0.527581 0.528661
34 2 0.486982 0.5219 0.536349
117 1 0.471974 0.512931 0.541584
101 1 0.505863 0.522734 0.535836
38 1 0.49947 0.509094 0.543603
50 1 0.517074 0.510611 0.542114
74 1 0.484271 0.535547 0.524666
ITEM: TIMESTEP
6665000
ITEM: NUMBER OF ATOMS
141
ITEM: BOX BOUNDS pp pp pp
0.0000000000000000e+00 1.4356000000000000e+02
0.0000000000000000e+00 1.4356000000000000e+02
0.0000000000000000e+00 1.4356000000000000e+02
ITEM: ATOMS id type xs ys zs
39 1 0.499911 0.469835 0.464325
138 1 0.473084 0.488863 0.468178
99 2 0.485038 0.505491 0.458994
27 1 0.487443 0.488389 0.458036
21 1 0.500553 0.500828 0.449116
130 1 0.504656 0.484518 0.456074
82 1 0.517286 0.49537 0.452711
12 2 0.472894 0.508073 0.472108
112 1 0.485277 0.518618 0.470095
132 2 0.496569 0.535498 0.468649
122 2 0.499532 0.505965 0.466686
136 1 0.497938 0.516641 0.455186
45 1 0.530096 0.500426 0.46314
37 1 0.517145 0.510036 0.458897
79 1 0.466589 0.465085 0.488274
111 1 0.485934 0.459897 0.46841
67 2 0.486165 0.464604 0.485376
23 1 0.503887 0.457665 0.477894
105 1 0.523746 0.462574 0.504995
115 1 0.504854 0.459654 0.498577
17 1 0.517941 0.462954 0.48394
131 2 0.460503 0.481419 0.481711
15 2 0.471976 0.4939 0.486471
100 1 0.454875 0.487294 0.499538
24 2 0.493521 0.474666 0.499146
52 2 0.499434 0.488789 0.472498
80 1 0.47365 0.472116 0.473975
5 2 0.476049 0.477364 0.493204
64 2 0.485333 0.496957 0.474885
25 2 0.487387 0.47935 0.476812
72 2 0.489422 0.490265 0.488773
2 2 0.500487 0.503916 0.482921
11 2 0.500243 0.50141 0.499501
119 1 0.52929 0.483834 0.468207
102 2 0.501219 0.47296 0.480942
95 2 0.513028 0.473453 0.49731
92 2 0.512734 0.477454 0.471241
58 2 0.504627 0.486373 0.491176
137 2 0.52141 0.483181 0.48435
110 2 0.514574 0.497503 0.470866
66 2 0.518883 0.489499 0.502286
65 1 0.52992 0.47546 0.495945
41 1 0.534836 0.469337 0.482173
61 1 0.54193 0.487488 0.480552
114 2 0.458419 0.501071 0.480528
107 1 0.467358 0.507737 0.493111
32 2 0.470223 0.521002 0.482795
55 2 0.483333 0.509173 0.485557
73 2 0.481326 0.50353 0.50059
35 2 0.486863 0.529544 0.486442
85 2 0.476813 0.526741 0.499071
68 2 0.494873 0.515122 0.49371
126 2 0.528595 0.497924 0.478261
76 2 0.499603 0.520215 0.479927
90 2 0.513306 0.512613 0.478004
129 2 0.515594 0.50007 0.489633
33 2 0.51053 0.523055 0.495265
71 2 0.526638 0.512104 0.490396
109 2 0.508141 0.524739 0.466938
134 1 0.542731 0.505738 0.474402
18 1 0.541818 0.505287 0.492342
49 1 0.527617 0.516215 0.470292
53 1 0.538879 0.521211 0.483848
77 1 0.480118 0.534321 0.471997
83 2 0.496651 0.531356 0.501755
29 1 0.471038 0.536348 0.486253
36 1 0.487507 0.545186 0.483806
123 1 0.50158 0.535679 0.485156
43 1 0.518018 0.530199 0.479492
140 1 0.500068 0.547477 0.496734
75 1 0.526943 0.530525 0.493743
60 2 0.480254 0.463069 0.500007
44 1 0.49255 0.455507 0.510609
98 1 0.503633 0.455755 0.523822
54 2 0.482916 0.463771 0.52336
69 2 0.507044 0.468976 0.512913
89 1 0.534629 0.46844 0.520971
47 1 0.519592 0.467364 0.526425
86 1 0.463581 0.474863 0.505618
8 2 0.471622 0.491226 0.501981
63 1 0.461128 0.486388 0.516933
20 2 0.493339 0.474643 0.514894
22 2 0.478433 0.478044 0.509393
108 2 0.490744 0.489373 0.505714
106 2 0.492537 0.491682 0.52208
10 2 0.497614 0.469118 0.529645
94 2 0.477581 0.49499 0.515625
4 2 0.48386 0.479717 0.527612
56 2 0.50543 0.485007 0.507184
7 2 0.509582 0.481701 0.5236
40 2 0.521675 0.496358 0.515997
48 2 0.525302 0.484545 0.529176
6 2 0.514069 0.498714 0.529614
28 1 0.524772 0.477791 0.51405
30 1 0.546767 0.489067 0.498163
57 2 0.531937 0.492384 0.494137
113 1 0.543102 0.474648 0.506458
124 1 0.538486 0.48614 0.520091
120 1 0.531994 0.500439 0.529605
42 1 0.459799 0.524039 0.501084
88 2 0.458456 0.502892 0.507072
51 1 0.456295 0.519706 0.516949
128 2 0.465616 0.503417 0.523547
14 2 0.470094 0.512595 0.509195
103 2 0.479484 0.516637 0.522908
133 2 0.489235 0.504937 0.514313
104 2 0.486184 0.519463 0.508014
78 2 0.493356 0.521298 0.525316
13 2 0.483134 0.501997 0.531558
81 2 0.505521 0.498879 0.515144
141 2 0.502305 0.516061 0.508944
125 2 0.511666 0.512439 0.521253
9 2 0.521439 0.52282 0.508207
84 2 0.517404 0.505756 0.504941
96 2 0.528984 0.511877 0.519446
116 2 0.537256 0.49897 0.508906
62 1 0.537028 0.518515 0.502952
121 1 0.484967 0.54337 0.500853
19 1 0.468825 0.530395 0.514478
91 2 0.48834 0.536422 0.517004
118 2 0.508373 0.529056 0.515743
3 2 0.514748 0.537265 0.502421
139 1 0.501537 0.547165 0.513517
16 1 0.51847 0.541517 0.521351
87 1 0.531424 0.53063 0.519778
70 1 0.467593 0.473235 0.521926
31 1 0.470323 0.488759 0.532649
1 1 0.484798 0.489578 0.541365
26 2 0.500108 0.491143 0.535543
135 1 0.509394 0.477534 0.540617
46 1 0.518834 0.490274 0.546367
117 1 0.463563 0.519166 0.530616
59 1 0.47326 0.510245 0.540492
34 2 0.491287 0.516785 0.541154
97 2 0.499502 0.506742 0.529519
38 1 0.505001 0.50621 0.545418
127 1 0.520678 0.525505 0.531024
93 2 0.520379 0.510535 0.540132
50 1 0.506271 0.521566 0.539268
74 1 0.481403 0.531215 0.533132
101 1 0.502038 0.53765 0.531338
ITEM: TIMESTEP
6670000
ITEM: NUMBER OF ATOMS
141
ITEM: BOX BOUNDS pp pp pp
0.0000000000000000e+00 1.4356000000000000e+02
0.0000000000000000e+00 1.4356000000000000e+02
0.0000000000000000e+00 1.4356000000000000e+02
ITEM: ATOMS id type xs ys zs
80 1 0.467898 0.470269 0.468903
27 1 0.465871 0.486973 0.46566
39 1 0.482123 0.479309 0.460022
21 1 0.490376 0.493649 0.453836
52 2 0.49454 0.485456 0.473127
130 1 0.498739 0.47688 0.458773
64 2 0.500974 0.499389 0.465861
99 2 0.481623 0.494055 0.468652
119 1 0.527859 0.491246 0.467287
37 1 0.513232 0.495444 0.454024
92 2 0.512625 0.486181 0.468668
136 1 0.489478 0.510282 0.456701
112 1 0.466849 0.504092 0.468279
132 2 0.484859 0.528343 0.469987
82 1 0.528779 0.511779 0.467706
122 2 0.512668 0.511188 0.459563
45 1 0.524346 0.52754 0.469469
109 2 0.49599 0.517094 0.470278
79 1 0.468952 0.470117 0.496643
111 1 0.485224 0.466247 0.469359
67 2 0.491698 0.455242 0.485862
23 1 0.507049 0.466676 0.469179
115 1 0.507848 0.45698 0.485092
17 1 0.521597 0.464196 0.479565
105 1 0.521109 0.458622 0.496705
138 1 0.46068 0.482772 0.48631
131 2 0.460976 0.484433 0.502233
114 2 0.46062 0.499637 0.494435
15 2 0.476909 0.481078 0.478713
25 2 0.478024 0.463434 0.483482
72 2 0.486212 0.469807 0.495639
102 2 0.495056 0.470118 0.481441
8 2 0.475192 0.485919 0.496555
73 2 0.484892 0.498006 0.486295
108 2 0.493814 0.484578 0.489481
110 2 0.514914 0.502307 0.473815
95 2 0.509991 0.477277 0.484016
58 2 0.504371 0.494707 0.482383
137 2 0.522898 0.487616 0.483758
66 2 0.51089 0.487687 0.496438
11 2 0.501531 0.499948 0.497792
41 1 0.525611 0.475571 0.471518
65 1 0.534059 0.472262 0.486982
61 1 0.540056 0.486058 0.479901
30 1 0.52912 0.492196 0.497846
12 2 0.469964 0.495858 0.481768
42 1 0.461127 0.517898 0.500643
32 2 0.460853 0.511185 0.483358
51 1 0.470723 0.523799 0.485432
107 1 0.475374 0.509413 0.492977
55 2 0.481205 0.509166 0.475275
35 2 0.488486 0.522563 0.484887
2 2 0.498362 0.50982 0.484443
68 2 0.488483 0.512888 0.498591
83 2 0.498836 0.52748 0.497201
76 2 0.500821 0.531935 0.479179
129 2 0.515851 0.503665 0.490108
90 2 0.511999 0.519096 0.479771
33 2 0.514008 0.519946 0.495415
49 1 0.529138 0.519218 0.484305
126 2 0.531523 0.502258 0.484567
57 2 0.529857 0.509128 0.499561
134 1 0.54507 0.516782 0.48253
53 1 0.545673 0.514044 0.499049
18 1 0.543489 0.499232 0.49544
77 1 0.4704 0.52194 0.468072
29 1 0.48447 0.537288 0.492508
36 1 0.505873 0.527181 0.463205
71 2 0.530867 0.526257 0.498308
140 1 0.505402 0.542949 0.493598
123 1 0.520255 0.533645 0.484848
43 1 0.536076 0.533295 0.483578
24 2 0.504391 0.468526 0.496953
60 2 0.476661 0.460215 0.508155
54 2 0.491229 0.465639 0.514726
44 1 0.493085 0.455419 0.502637
98 1 0.5078 0.457223 0.50993
135 1 0.506921 0.466471 0.526143
113 1 0.536886 0.462417 0.501337
86 1 0.463745 0.470918 0.51655
100 1 0.456121 0.503649 0.511402
63 1 0.457086 0.489337 0.519947
88 2 0.470838 0.496871 0.50964
70 1 0.481367 0.475336 0.526068
5 2 0.477674 0.477499 0.509761
22 2 0.494992 0.480651 0.506753
106 2 0.502084 0.498927 0.530019
94 2 0.486224 0.496678 0.502876
4 2 0.484545 0.490223 0.519052
20 2 0.509796 0.475297 0.510474
69 2 0.522874 0.463366 0.518836
56 2 0.523268 0.476828 0.498641
7 2 0.511748 0.484976 0.526055
40 2 0.519923 0.488441 0.512251
81 2 0.502873 0.494438 0.51357
28 1 0.542095 0.481357 0.498157
89 1 0.533257 0.476273 0.513823
124 1 0.529046 0.489452 0.527233
116 2 0.537764 0.493541 0.51181
13 2 0.468305 0.503089 0.524588
128 2 0.463542 0.519545 0.519363
117 1 0.462721 0.532295 0.507302
85 2 0.477741 0.525292 0.501512
14 2 0.476389 0.514321 0.511381
103 2 0.477445 0.515571 0.527167
133 2 0.489563 0.505607 0.515061
104 2 0.49041 0.525444 0.516185
78 2 0.494827 0.514434 0.527585
141 2 0.503629 0.513933 0.510385
125 2 0.511023 0.515907 0.52856
9 2 0.519693 0.519282 0.512918
84 2 0.515638 0.502248 0.505276
96 2 0.531517 0.507247 0.519042
118 2 0.506243 0.530112 0.513516
6 2 0.516014 0.500279 0.522925
87 1 0.533202 0.523631 0.52775
62 1 0.541611 0.521135 0.512786
19 1 0.476008 0.543452 0.504834
121 1 0.493854 0.540609 0.506989
91 2 0.475268 0.531451 0.518845
3 2 0.517576 0.534081 0.50361
139 1 0.5081 0.547342 0.511007
16 1 0.517018 0.532868 0.527653
75 1 0.528882 0.533841 0.515253
31 1 0.470915 0.487773 0.531208
10 2 0.496999 0.479529 0.522054
1 1 0.487251 0.4846 0.536828
26 2 0.493168 0.499344 0.545948
47 1 0.520523 0.478622 0.538087
48 2 0.503664 0.479733 0.539562
120 1 0.518865 0.495597 0.539587
59 1 0.469327 0.525229 0.536192
97 2 0.4843 0.501941 0.531275
46 1 0.489586 0.515796 0.54365
34 2 0.471381 0.509058 0.540865
74 1 0.48509 0.528998 0.534164
38 1 0.506207 0.510893 0.543006
93 2 0.524715 0.508938 0.533597
50 1 0.503312 0.527376 0.540257
127 1 0.520849 0.524466 0.542246
101 1 0.497521 0.536746 0.526705
ITEM: TIMESTEP
6675000
ITEM: NUMBER OF ATOMS
141
ITEM: BOX BOUNDS pp pp pp
0.0000000000000000e+00 1.4356000000000000e+02
0.0000000000000000e+00 1.4356000000000000e+02
0.0000000000000000e+00 1.4356000000000000e+02
ITEM: ATOMS id type xs ys zs
130 1 0.50034 0.471526 0.467687
105 1 0.516747 0.468074 0.470053
111 1 0.483222 0.473966 0.465167
99 2 0.4828 0.492295 0.46757
39 1 0.496975 0.487754 0.457707
92 2 0.51271 0.486024 0.466678
112 1 0.473392 0.506066 0.459761
21 1 0.51001 0.513437 0.454257
136 1 0.492849 0.503989 0.45833
122 2 0.483119 0.520499 0.465957
109 2 0.497778 0.516428 0.470367
41 1 0.510457 0.499248 0.457645
37 1 0.526193 0.515145 0.463264
36 1 0.514896 0.526718 0.46771
119 1 0.525883 0.498974 0.465435
79 1 0.469316 0.462875 0.498349
67 2 0.472839 0.465749 0.482608
44 1 0.484117 0.453474 0.487177
23 1 0.486304 0.458046 0.469164
102 2 0.493224 0.467596 0.482339
54 2 0.499677 0.460124 0.496849
115 1 0.505295 0.459294 0.479277
24 2 0.514636 0.46993 0.494663
113 1 0.512344 0.448268 0.495816
80 1 0.465634 0.487658 0.468227
27 1 0.457433 0.491696 0.484776
138 1 0.46036 0.47708 0.489207
114 2 0.459011 0.492622 0.502382
72 2 0.484318 0.472818 0.494824
25 2 0.475902 0.480868 0.480464
12 2 0.475144 0.496233 0.481737
52 2 0.492526 0.484329 0.476294
15 2 0.487977 0.490071 0.490439
8 2 0.473971 0.485043 0.496558
64 2 0.498525 0.498133 0.472766
108 2 0.50148 0.477164 0.496021
17 1 0.52887 0.475916 0.477751
95 2 0.510352 0.477998 0.480918
58 2 0.506622 0.492001 0.489102
137 2 0.520301 0.493186 0.478166
56 2 0.521109 0.484494 0.492477
126 2 0.526231 0.500733 0.493061
66 2 0.511774 0.487614 0.505086
65 1 0.524196 0.459706 0.487666
30 1 0.52052 0.458212 0.506995
61 1 0.537566 0.489543 0.48432
77 1 0.464427 0.507521 0.473716
32 2 0.461905 0.505823 0.491326
42 1 0.46097 0.523122 0.485906
107 1 0.452906 0.513979 0.506492
73 2 0.478107 0.500818 0.500511
55 2 0.484042 0.50753 0.474434
35 2 0.476409 0.512046 0.488822
2 2 0.497586 0.507248 0.486554
76 2 0.489935 0.520939 0.483253
68 2 0.489101 0.513355 0.499959
11 2 0.498571 0.498929 0.501207
110 2 0.512661 0.508391 0.471502
129 2 0.51225 0.509264 0.488143
90 2 0.507016 0.522442 0.481998
49 1 0.535617 0.516709 0.492578
43 1 0.524316 0.52025 0.478736
33 2 0.505782 0.518413 0.500732
45 1 0.532848 0.507114 0.477135
82 1 0.543287 0.502241 0.494583
134 1 0.530441 0.535061 0.481478
71 2 0.533037 0.53115 0.49973
53 1 0.545851 0.515972 0.508627
85 2 0.481659 0.527049 0.49512
83 2 0.495793 0.531537 0.494517
51 1 0.47405 0.529311 0.478321
132 2 0.498659 0.534442 0.474988
29 1 0.484282 0.542226 0.484551
140 1 0.501856 0.546101 0.490608
123 1 0.515482 0.538307 0.481118
3 2 0.518476 0.526532 0.49312
121 1 0.520305 0.545581 0.497335
60 2 0.485266 0.457452 0.504474
86 1 0.474806 0.459671 0.518573
70 1 0.505676 0.455194 0.514961
98 1 0.524769 0.465027 0.522334
131 2 0.461797 0.478174 0.511059
63 1 0.470676 0.476388 0.526918
100 1 0.457684 0.491382 0.523128
88 2 0.473955 0.490825 0.512508
5 2 0.47908 0.474412 0.511544
22 2 0.494765 0.469407 0.515196
94 2 0.488911 0.48647 0.50668
4 2 0.486757 0.483325 0.522947
10 2 0.50677 0.468721 0.527959
106 2 0.49335 0.497708 0.52715
13 2 0.474334 0.494971 0.527142
81 2 0.500963 0.487462 0.517116
69 2 0.525088 0.476252 0.50967
20 2 0.509929 0.471114 0.5113
7 2 0.514337 0.482321 0.524388
40 2 0.525272 0.494138 0.514476
89 1 0.532452 0.480928 0.526889
18 1 0.53807 0.490344 0.503058
28 1 0.533931 0.474748 0.496057
116 2 0.540738 0.495796 0.518589
128 2 0.468257 0.517891 0.501802
59 1 0.463393 0.522536 0.519126
14 2 0.4662 0.505363 0.512538
34 2 0.474184 0.511488 0.527886
133 2 0.485909 0.502581 0.514462
104 2 0.493337 0.526868 0.510018
103 2 0.480278 0.516944 0.513043
50 1 0.498079 0.530685 0.526114
97 2 0.490823 0.513568 0.52443
141 2 0.502509 0.507999 0.514509
125 2 0.510364 0.524064 0.515552
9 2 0.524526 0.522253 0.50828
84 2 0.515883 0.504096 0.503961
96 2 0.518828 0.509933 0.518612
75 1 0.524628 0.52558 0.525634
57 2 0.533189 0.507857 0.50736
62 1 0.537349 0.52948 0.516344
117 1 0.470084 0.537087 0.494485
19 1 0.486717 0.542918 0.501812
91 2 0.476916 0.531454 0.509983
101 1 0.49645 0.543611 0.514748
118 2 0.507423 0.536045 0.505233
139 1 0.522334 0.537961 0.512516
16 1 0.51197 0.537685 0.524536
135 1 0.488852 0.466817 0.530893
1 1 0.485114 0.489111 0.539734
26 2 0.499712 0.498176 0.541576
6 2 0.512085 0.498062 0.525555
47 1 0.518329 0.476429 0.538184
48 2 0.501102 0.484396 0.533863
120 1 0.515358 0.494707 0.543116
124 1 0.530395 0.497918 0.532235
31 1 0.485958 0.505584 0.541312
46 1 0.49387 0.521769 0.540391
74 1 0.478264 0.527984 0.527468
78 2 0.504948 0.51333 0.530634
38 1 0.510096 0.513191 0.546883
93 2 0.523455 0.512603 0.53654
127 1 0.510189 0.527539 0.536989
87 1 0.536884 0.513487 0.5237
ITEM: TIMESTEP
6680000
ITEM: NUMBER OF ATOMS
141
ITEM: BOX BOUNDS pp pp pp
0.0000000000000000e+00 1.4356000000000000e+02
0.0000000000000000e+00 1.4356000000000000e+02
0.0000000000000000e+00 1.4356000000000000e+02
ITEM: ATOMS id type xs ys zs
130 1 0.492479 0.460736 0.472068
80 1 0.476874 0.482034 0.461338
39 1 0.491803 0.472802 0.458612
136 1 0.491916 0.490654 0.45834
41 1 0.508164 0.484626 0.455802
92 2 0.508797 0.488149 0.472608
119 1 0.52253 0.491606 0.464481
64 2 0.507552 0.500199 0.461747
112 1 0.476717 0.498425 0.456571
122 2 0.490679 0.509889 0.463984
21 1 0.503343 0.514384 0.453058
132 2 0.507635 0.531566 0.463826
23 1 0.480475 0.458264 0.484444
44 1 0.488985 0.457117 0.502808
111 1 0.480367 0.472462 0.475259
105 1 0.508152 0.464753 0.466404
115 1 0.496274 0.455124 0.48911
65 1 0.511845 0.458647 0.487994
27 1 0.454551 0.495094 0.493046
138 1 0.456677 0.479475 0.495962
25 2 0.466378 0.48483 0.481749
12 2 0.466024 0.493947 0.469141
52 2 0.494354 0.480933 0.472193
67 2 0.471598 0.473359 0.489859
99 2 0.483062 0.496963 0.471516
102 2 0.492011 0.470816 0.48702
15 2 0.483589 0.485361 0.48559
8 2 0.47178 0.488377 0.496668
11 2 0.499541 0.499993 0.498635
108 2 0.501072 0.486789 0.488358
72 2 0.484741 0.474068 0.501773
54 2 0.501984 0.468649 0.499299
2 2 0.49808 0.501584 0.477118
24 2 0.518068 0.476882 0.491619
17 1 0.524644 0.478929 0.476785
95 2 0.507264 0.473279 0.480087
58 2 0.518298 0.505872 0.474021
56 2 0.529891 0.487674 0.490342
66 2 0.515613 0.494372 0.485213
28 1 0.528854 0.465424 0.486986