ITEM: TIMESTEP
5550000
ITEM: NUMBER OF ATOMS
141
ITEM: BOX BOUNDS pp pp pp
0.0000000000000000e+00 1.4356000000000000e+02
0.0000000000000000e+00 1.4356000000000000e+02
0.0000000000000000e+00 1.4356000000000000e+02
ITEM: ATOMS id type xs ys zs
52 2 0.478432 0.495417 0.464038
72 2 0.48533 0.479925 0.467693
27 1 0.491059 0.492948 0.451789
9 2 0.498649 0.477569 0.457163
83 2 0.507432 0.491949 0.458892
75 1 0.516981 0.477408 0.461361
61 1 0.529639 0.487743 0.465417
74 1 0.48724 0.509858 0.461498
65 1 0.484681 0.526535 0.468825
78 2 0.502031 0.504764 0.467001
18 1 0.500155 0.523418 0.457847
41 1 0.508863 0.508611 0.452908
129 2 0.523259 0.502355 0.465279
12 2 0.513575 0.516121 0.470133
98 1 0.513088 0.531835 0.465949
124 1 0.484921 0.461912 0.478688
87 1 0.471751 0.461981 0.491905
77 1 0.490634 0.462517 0.493297
38 1 0.521276 0.465009 0.471314
53 1 0.507399 0.460731 0.478778
23 1 0.507349 0.455691 0.497027
70 1 0.518745 0.46443 0.48881
127 1 0.533805 0.470203 0.494335
136 1 0.462926 0.477069 0.49335
40 2 0.45816 0.490941 0.481395
68 2 0.47139 0.49144 0.491218
123 1 0.47337 0.475141 0.478832
71 2 0.496555 0.487972 0.471565
131 2 0.498627 0.488352 0.487713
35 2 0.494716 0.47466 0.481354
109 2 0.482771 0.488971 0.480499
22 2 0.479752 0.477289 0.493673
14 2 0.487891 0.499443 0.492353
58 2 0.503924 0.474839 0.494699
36 1 0.524567 0.477372 0.480176
141 2 0.508113 0.476024 0.475611
6 2 0.527842 0.492529 0.481925
84 2 0.513838 0.491365 0.475176
2 2 0.519881 0.479304 0.496144
76 2 0.514503 0.492976 0.492427
93 2 0.501448 0.498702 0.499573
4 2 0.52911 0.494592 0.499564
31 1 0.543308 0.489659 0.490014
59 1 0.463466 0.516224 0.483065
80 1 0.454783 0.502933 0.490944
81 2 0.469377 0.500175 0.47835
8 2 0.474084 0.513774 0.470914
115 1 0.486667 0.504785 0.476615
55 2 0.483169 0.519995 0.483951
10 2 0.496188 0.514585 0.493361
85 2 0.497484 0.517928 0.476602
94 2 0.47545 0.510681 0.49547
25 2 0.470847 0.528085 0.49252
103 2 0.50276 0.504173 0.483313
102 2 0.516278 0.510089 0.4972
34 2 0.511572 0.521642 0.484986
33 2 0.519264 0.507157 0.481623
137 2 0.527243 0.521061 0.493408
73 2 0.53501 0.506777 0.489406
105 1 0.541126 0.502828 0.473881
50 1 0.531525 0.518097 0.470891
51 1 0.541732 0.520318 0.484953
135 1 0.469993 0.529521 0.475716
92 2 0.495148 0.530419 0.494662
138 1 0.484171 0.535759 0.483288
19 1 0.49915 0.534672 0.476822
82 1 0.494381 0.547276 0.488425
114 2 0.523871 0.531515 0.47878
21 1 0.508841 0.539635 0.488672
46 1 0.465764 0.467732 0.508161
117 1 0.48354 0.467743 0.528289
16 1 0.477281 0.457393 0.516929
54 2 0.482207 0.469459 0.505285
119 1 0.495993 0.456926 0.509504
39 1 0.523719 0.454314 0.502847
62 1 0.509744 0.462206 0.523086
67 2 0.513429 0.468682 0.507203
139 1 0.530576 0.470538 0.51187
28 1 0.454236 0.489556 0.500369
99 2 0.468381 0.475176 0.523836
120 1 0.457513 0.488332 0.51753
60 2 0.497814 0.471984 0.511328
88 2 0.490365 0.485324 0.502666
108 2 0.471156 0.482298 0.506892
48 2 0.484667 0.480789 0.51755
110 2 0.496522 0.494881 0.515816
126 2 0.477125 0.496305 0.505937
97 2 0.477154 0.495841 0.52282
106 2 0.506779 0.483932 0.507218
11 2 0.502688 0.477748 0.525908
133 2 0.515876 0.496808 0.509696
96 2 0.511976 0.492198 0.524383
69 2 0.519516 0.481888 0.515768
3 2 0.529616 0.494086 0.516374
30 1 0.536232 0.480258 0.525196
95 2 0.539157 0.482418 0.50557
42 1 0.54214 0.499377 0.52861
130 1 0.460126 0.503153 0.506278
47 1 0.462104 0.520399 0.521464
13 2 0.462856 0.517464 0.501793
49 1 0.458898 0.503428 0.523351
5 2 0.48849 0.507632 0.507376
91 2 0.480267 0.523829 0.52259
128 2 0.474239 0.510971 0.515111
15 2 0.489897 0.510006 0.522124
57 2 0.495054 0.524063 0.512504
32 2 0.482575 0.522586 0.502556
132 2 0.505083 0.510257 0.512917
64 2 0.508394 0.524359 0.501691
116 2 0.504981 0.520925 0.525775
26 2 0.520604 0.507898 0.523568
20 2 0.520428 0.521136 0.514549
45 1 0.544888 0.501259 0.510574
43 1 0.545486 0.516741 0.501353
125 2 0.529905 0.509144 0.506804
101 1 0.536296 0.517226 0.521254
79 1 0.536927 0.528838 0.506129
29 1 0.468129 0.531173 0.510448
66 2 0.480356 0.539155 0.500179
122 2 0.499484 0.540834 0.507168
140 1 0.483561 0.538489 0.516346
37 1 0.497256 0.541791 0.523151
118 2 0.523047 0.534389 0.502204
24 2 0.511518 0.534991 0.517475
121 1 0.464297 0.4898 0.532444
56 2 0.494688 0.491323 0.531977
7 2 0.47971 0.48291 0.534749
1 1 0.481765 0.497406 0.540404
100 1 0.511078 0.486727 0.540335
111 1 0.521229 0.47584 0.530103
113 1 0.527553 0.49398 0.535004
63 1 0.488241 0.515637 0.537868
104 2 0.472844 0.50979 0.531982
17 1 0.499222 0.503038 0.546927
90 2 0.503163 0.504814 0.531043
86 1 0.516755 0.506026 0.54056
44 1 0.504998 0.518529 0.542946
112 1 0.519936 0.522392 0.533157
89 1 0.531962 0.510354 0.535422
134 1 0.492799 0.531013 0.533825
107 1 0.509982 0.53614 0.533048
ITEM: TIMESTEP
5555000
ITEM: NUMBER OF ATOMS
141
ITEM: BOX BOUNDS pp pp pp
0.0000000000000000e+00 1.4356000000000000e+02
0.0000000000000000e+00 1.4356000000000000e+02
0.0000000000000000e+00 1.4356000000000000e+02
ITEM: ATOMS id type xs ys zs
35 2 0.499142 0.472738 0.464785
72 2 0.482858 0.47457 0.463048
9 2 0.490515 0.48958 0.458326
8 2 0.477532 0.499487 0.460798
27 1 0.500841 0.497898 0.447378
75 1 0.508482 0.485857 0.457326
38 1 0.516728 0.473896 0.466957
36 1 0.534429 0.498417 0.471121
135 1 0.471125 0.512979 0.468266
74 1 0.490092 0.510761 0.453989
78 2 0.501186 0.501365 0.463362
65 1 0.489138 0.524453 0.464378
83 2 0.515966 0.501531 0.456022
18 1 0.504495 0.522386 0.456989
41 1 0.526817 0.512368 0.462388
98 1 0.517468 0.527214 0.470953
123 1 0.471312 0.472095 0.477165
124 1 0.482145 0.460289 0.48019
87 1 0.4727 0.466691 0.492888
77 1 0.486824 0.455402 0.49767
58 2 0.498227 0.468638 0.494949
22 2 0.489231 0.475622 0.479243
53 1 0.498938 0.45865 0.478523
23 1 0.508278 0.454914 0.494609
70 1 0.522729 0.462892 0.486161
39 1 0.526271 0.461613 0.502375
52 2 0.471889 0.486194 0.468473
136 1 0.457946 0.486141 0.479879
68 2 0.47342 0.495524 0.498285
131 2 0.493354 0.487817 0.490485
109 2 0.478106 0.48503 0.485951
54 2 0.484041 0.477442 0.500803
14 2 0.484432 0.501941 0.488806
115 1 0.487339 0.492343 0.473587
93 2 0.500667 0.49994 0.498444
71 2 0.504478 0.487091 0.473816
141 2 0.510488 0.471926 0.482045
84 2 0.51947 0.492877 0.47047
2 2 0.516215 0.474171 0.497337
76 2 0.510073 0.487996 0.489937
6 2 0.523781 0.479825 0.481538
33 2 0.522077 0.499113 0.485767
61 1 0.539422 0.486888 0.48181
127 1 0.53623 0.473511 0.494416
4 2 0.528008 0.486731 0.498649
40 2 0.454716 0.502056 0.485459
59 1 0.459369 0.498102 0.468003
25 2 0.464 0.513462 0.48517
81 2 0.471276 0.498842 0.478898
55 2 0.478274 0.516187 0.48601
10 2 0.495225 0.514247 0.492714
85 2 0.486361 0.508785 0.47317
94 2 0.478312 0.51193 0.502257
92 2 0.489534 0.527992 0.48364
34 2 0.500681 0.517365 0.474684
103 2 0.500616 0.502054 0.481705
12 2 0.514471 0.509444 0.471153
102 2 0.511557 0.51175 0.49021
114 2 0.521177 0.523041 0.486979
118 2 0.505327 0.527386 0.488324
125 2 0.526265 0.506306 0.500991
105 1 0.538853 0.502411 0.489341
129 2 0.528497 0.51239 0.479212
73 2 0.537475 0.517963 0.49383
66 2 0.468887 0.524929 0.497181
138 1 0.473794 0.5292 0.476649
82 1 0.480651 0.537629 0.493508
19 1 0.501998 0.533725 0.470451
50 1 0.514454 0.539559 0.483566
21 1 0.500264 0.542108 0.489518
51 1 0.532709 0.532767 0.484145
16 1 0.486479 0.455732 0.516081
99 2 0.472613 0.471088 0.513742
117 1 0.482614 0.470452 0.527641
119 1 0.500164 0.450801 0.51266
62 1 0.503118 0.463182 0.524247
67 2 0.509115 0.464777 0.508327
139 1 0.523733 0.464822 0.520396
46 1 0.463047 0.480237 0.496563
28 1 0.455505 0.493026 0.501715
130 1 0.456635 0.500224 0.518166
120 1 0.471967 0.481588 0.527853
60 2 0.494092 0.468622 0.510009
108 2 0.4683 0.486938 0.510729
88 2 0.487624 0.494234 0.503975
48 2 0.484501 0.486913 0.516991
110 2 0.500237 0.494059 0.51422
106 2 0.502513 0.483016 0.504034
11 2 0.49955 0.479685 0.52046
96 2 0.514911 0.491425 0.523578
69 2 0.517056 0.479746 0.513356
133 2 0.515218 0.493696 0.504979
31 1 0.54356 0.486204 0.501889
3 2 0.529853 0.491138 0.513698
30 1 0.529044 0.48064 0.531754
95 2 0.533743 0.474649 0.51131
42 1 0.544485 0.49263 0.519635
80 1 0.459466 0.508882 0.501478
13 2 0.464484 0.521121 0.511764
49 1 0.461528 0.513211 0.528124
126 2 0.47381 0.500485 0.514912
32 2 0.485743 0.5254 0.503871
97 2 0.487056 0.501462 0.523793
5 2 0.494091 0.510593 0.512087
128 2 0.48055 0.516637 0.517323
15 2 0.496407 0.514466 0.53057
132 2 0.510046 0.509402 0.510248
116 2 0.510217 0.522637 0.522055
26 2 0.523289 0.508887 0.516106
20 2 0.519476 0.52041 0.504441
90 2 0.510722 0.506802 0.527162
64 2 0.502677 0.524372 0.504408
112 1 0.52778 0.519593 0.528026
45 1 0.541931 0.502531 0.507285
43 1 0.536116 0.523075 0.513477
101 1 0.543392 0.509164 0.523014
47 1 0.471269 0.528558 0.525606
57 2 0.493901 0.527075 0.518857
29 1 0.47396 0.536021 0.510986
122 2 0.494249 0.538953 0.507524
140 1 0.484044 0.541555 0.521834
137 2 0.530301 0.533044 0.500531
37 1 0.506935 0.539505 0.518577
24 2 0.512252 0.538687 0.502003
79 1 0.523509 0.532854 0.516074
121 1 0.469798 0.498447 0.530908
56 2 0.501545 0.492704 0.532763
7 2 0.486896 0.488887 0.532926
100 1 0.498032 0.476829 0.539039
111 1 0.512586 0.475515 0.531106
113 1 0.518716 0.489943 0.539645
89 1 0.531143 0.49821 0.529973
91 2 0.485691 0.528898 0.533173
104 2 0.477398 0.512022 0.534544
1 1 0.488214 0.502626 0.543416
63 1 0.49555 0.519494 0.547563
17 1 0.504678 0.506144 0.544798
86 1 0.523691 0.50863 0.538979
44 1 0.512166 0.51999 0.539694
134 1 0.501277 0.532127 0.537713
107 1 0.516675 0.535032 0.532359
ITEM: TIMESTEP
5560000
ITEM: NUMBER OF ATOMS
141
ITEM: BOX BOUNDS pp pp pp
0.0000000000000000e+00 1.4356000000000000e+02
0.0000000000000000e+00 1.4356000000000000e+02
0.0000000000000000e+00 1.4356000000000000e+02
ITEM: ATOMS id type xs ys zs
53 1 0.508138 0.465917 0.467727
35 2 0.491976 0.469117 0.46726
72 2 0.482867 0.482631 0.46145
9 2 0.494746 0.49621 0.459201
8 2 0.476112 0.498908 0.466229
75 1 0.502076 0.480463 0.461784
38 1 0.519311 0.479221 0.463105
83 2 0.523924 0.502551 0.465997
18 1 0.5115 0.498577 0.454543
74 1 0.484828 0.509623 0.457399
27 1 0.500484 0.512891 0.452175
65 1 0.490366 0.527206 0.45907
78 2 0.505693 0.507492 0.468925
41 1 0.51728 0.514035 0.455983
51 1 0.523496 0.518185 0.470313
19 1 0.491948 0.535777 0.47405
34 2 0.506377 0.526904 0.464757
87 1 0.479199 0.460422 0.492498
22 2 0.479252 0.472461 0.4779
124 1 0.495162 0.460767 0.483282
23 1 0.505497 0.452989 0.495921
70 1 0.514631 0.458134 0.483573
123 1 0.460071 0.49326 0.48471
136 1 0.451956 0.501766 0.495968
59 1 0.458416 0.503825 0.470298
46 1 0.465555 0.466707 0.50013
58 2 0.489451 0.476295 0.490254
52 2 0.46945 0.484412 0.473843
68 2 0.470777 0.496668 0.499293
131 2 0.501583 0.495915 0.484825
109 2 0.477498 0.496882 0.483281
54 2 0.47319 0.481727 0.491047
115 1 0.491572 0.48382 0.476451
71 2 0.508889 0.491999 0.469654
141 2 0.505605 0.47762 0.478967
84 2 0.526907 0.489947 0.474174
2 2 0.505617 0.470784 0.493076
76 2 0.515292 0.487201 0.484966
6 2 0.521087 0.473876 0.479286
33 2 0.528875 0.496137 0.491819
4 2 0.521888 0.475925 0.498353
127 1 0.529208 0.463158 0.489459
36 1 0.541496 0.491067 0.482589
61 1 0.536828 0.479272 0.491242
25 2 0.466925 0.507666 0.483944
138 1 0.46376 0.525752 0.482705
135 1 0.473183 0.51471 0.46811
85 2 0.492441 0.518985 0.472584
14 2 0.483766 0.507092 0.496958
81 2 0.490487 0.502581 0.474724
55 2 0.479788 0.51681 0.484095
10 2 0.495255 0.517214 0.500836
94 2 0.46546 0.514593 0.498794
103 2 0.498298 0.512598 0.486473
12 2 0.515172 0.503292 0.482407
102 2 0.512834 0.510999 0.49737
114 2 0.524084 0.519561 0.489653
118 2 0.511331 0.522493 0.480285
31 1 0.545311 0.499935 0.499361
105 1 0.539078 0.515184 0.496525
129 2 0.533165 0.506596 0.481183
73 2 0.533504 0.531596 0.498246
50 1 0.537058 0.524289 0.480698
92 2 0.4927 0.527439 0.487735
82 1 0.477412 0.529791 0.4743
29 1 0.474453 0.532316 0.493333
98 1 0.521883 0.53571 0.476173
64 2 0.507694 0.526876 0.495389
21 1 0.506168 0.539164 0.481513
137 2 0.518925 0.537967 0.493089
24 2 0.502712 0.540654 0.497913
77 1 0.492524 0.462755 0.500519
16 1 0.478587 0.462789 0.513377
62 1 0.492575 0.463339 0.527098
60 2 0.510712 0.470826 0.50889
119 1 0.503233 0.458484 0.513671
67 2 0.520037 0.460556 0.502049
139 1 0.508234 0.47187 0.526816
39 1 0.523553 0.462639 0.518672
120 1 0.46525 0.472032 0.517171
28 1 0.459172 0.483192 0.497609
130 1 0.454804 0.486012 0.513908
99 2 0.481104 0.476898 0.504582
108 2 0.471208 0.488584 0.513295
88 2 0.48714 0.491192 0.493791
48 2 0.496021 0.475114 0.514857
97 2 0.486657 0.491561 0.51078
11 2 0.496173 0.483423 0.528642
117 1 0.478258 0.476774 0.524817
110 2 0.50371 0.492769 0.515185
106 2 0.499018 0.483222 0.501796
96 2 0.52257 0.499107 0.517753
69 2 0.517571 0.48398 0.512935
133 2 0.515647 0.494356 0.501735
95 2 0.531792 0.474308 0.510874
42 1 0.536265 0.488017 0.522606
3 2 0.53188 0.491349 0.506197
101 1 0.541008 0.506579 0.515419
40 2 0.460404 0.502653 0.51066
13 2 0.467933 0.515662 0.517966
126 2 0.464236 0.495945 0.525247
93 2 0.500807 0.501424 0.500389
66 2 0.473492 0.524112 0.53013
5 2 0.476878 0.504115 0.511858
128 2 0.483778 0.512023 0.526762
91 2 0.493264 0.506708 0.514346
32 2 0.479472 0.519819 0.506657
134 1 0.488932 0.528181 0.518278
132 2 0.508088 0.510051 0.513064
116 2 0.514718 0.527988 0.523709
26 2 0.52424 0.514481 0.520196
20 2 0.519964 0.524154 0.507182
90 2 0.512293 0.506172 0.529689
125 2 0.527327 0.508778 0.504424
57 2 0.504105 0.525877 0.511355
112 1 0.523965 0.511848 0.5396
45 1 0.537678 0.522232 0.511384
43 1 0.529217 0.537513 0.516863
122 2 0.488039 0.533706 0.502468
47 1 0.473203 0.533938 0.512066
140 1 0.486802 0.542876 0.489085
37 1 0.4961 0.542253 0.514185
79 1 0.512285 0.541076 0.511439
107 1 0.499554 0.536457 0.530058
7 2 0.482914 0.495232 0.526686
15 2 0.498006 0.499875 0.529663
100 1 0.498116 0.471466 0.541028
1 1 0.484509 0.480722 0.540389
30 1 0.524968 0.477623 0.527291
56 2 0.511983 0.490995 0.528971
111 1 0.511685 0.481129 0.543719
113 1 0.526495 0.490411 0.535911
17 1 0.496995 0.490471 0.545354
86 1 0.513134 0.500007 0.54439
80 1 0.468959 0.508722 0.535167
49 1 0.488292 0.524215 0.538526
121 1 0.482045 0.500962 0.543136
104 2 0.500677 0.517774 0.52674
63 1 0.495889 0.509233 0.544008
44 1 0.508749 0.523508 0.539283
89 1 0.535458 0.504051 0.530611
ITEM: TIMESTEP
5565000
ITEM: NUMBER OF ATOMS
141
ITEM: BOX BOUNDS pp pp pp
0.0000000000000000e+00 1.4356000000000000e+02
0.0000000000000000e+00 1.4356000000000000e+02
0.0000000000000000e+00 1.4356000000000000e+02
ITEM: ATOMS id type xs ys zs
72 2 0.476523 0.483924 0.46634
9 2 0.490358 0.49934 0.464112
75 1 0.494322 0.483656 0.459686
38 1 0.487703 0.469669 0.46744
18 1 0.513187 0.484564 0.463283
71 2 0.504558 0.498587 0.474055
135 1 0.465923 0.514812 0.469083
59 1 0.456755 0.505139 0.478814
8 2 0.47354 0.499707 0.466451
74 1 0.487642 0.511248 0.452053
78 2 0.499132 0.514026 0.464573
65 1 0.500251 0.529368 0.459638
83 2 0.520393 0.502885 0.463943
27 1 0.503625 0.499821 0.454895
41 1 0.514533 0.519924 0.458163
35 2 0.477674 0.4629 0.479575
22 2 0.471212 0.467897 0.494934
124 1 0.495173 0.461612 0.48041
53 1 0.504005 0.470505 0.46873
127 1 0.51098 0.464734 0.482491
123 1 0.458031 0.477001 0.49171
52 2 0.463451 0.488746 0.477013
46 1 0.467036 0.470451 0.472333
68 2 0.471193 0.495834 0.491648
58 2 0.486746 0.470673 0.492164
109 2 0.481944 0.496004 0.479898
54 2 0.474915 0.481116 0.484591
115 1 0.490792 0.48229 0.476596
88 2 0.487487 0.486137 0.495914
99 2 0.473802 0.481509 0.504228
6 2 0.52314 0.48126 0.484991
141 2 0.501228 0.474061 0.490865
84 2 0.508098 0.483358 0.479071
76 2 0.497802 0.496126 0.488169
33 2 0.534769 0.493192 0.487663
4 2 0.509615 0.488284 0.494482
12 2 0.520018 0.497703 0.479533
36 1 0.528419 0.487084 0.470674
61 1 0.526819 0.46465 0.489516
31 1 0.537854 0.479139 0.494772
105 1 0.542194 0.508754 0.492767
25 2 0.473598 0.510949 0.482842
138 1 0.458808 0.521239 0.487407
136 1 0.457859 0.505197 0.495515
94 2 0.469964 0.528761 0.496054
5 2 0.472012 0.51216 0.499587
85 2 0.486261 0.530322 0.469294
131 2 0.494808 0.509196 0.481375
14 2 0.485302 0.504082 0.49362
81 2 0.482394 0.51372 0.470374
55 2 0.483929 0.521132 0.490889
103 2 0.497135 0.52538 0.479747
10 2 0.49894 0.517392 0.496477
51 1 0.528291 0.519017 0.471399
102 2 0.511017 0.505538 0.489682
114 2 0.526866 0.512744 0.486881
118 2 0.511751 0.513384 0.474496
64 2 0.513941 0.522649 0.48798
129 2 0.535497 0.502259 0.474541
50 1 0.541767 0.51966 0.481771
82 1 0.472943 0.528495 0.479045
19 1 0.501054 0.54176 0.474032
92 2 0.487181 0.537485 0.484895
122 2 0.502902 0.532067 0.494725
34 2 0.513156 0.530284 0.472822
98 1 0.527293 0.531369 0.485602
21 1 0.512645 0.542636 0.486991
120 1 0.473103 0.463775 0.512046
87 1 0.481873 0.455033 0.49822
16 1 0.495049 0.456064 0.514318
70 1 0.517418 0.455489 0.500742
2 2 0.51699 0.474336 0.498862
77 1 0.498587 0.454814 0.495243
48 2 0.506045 0.466114 0.507272
119 1 0.518495 0.462363 0.518245
23 1 0.53085 0.470142 0.507775
28 1 0.458703 0.491809 0.504447
130 1 0.458726 0.475921 0.509742
126 2 0.472204 0.479509 0.520802
93 2 0.494948 0.49935 0.503749
108 2 0.475697 0.49742 0.509283
97 2 0.488585 0.486234 0.514409
11 2 0.500617 0.477204 0.521089
117 1 0.489452 0.469527 0.507966
7 2 0.472665 0.495719 0.525143
1 1 0.48585 0.467066 0.523415
67 2 0.525522 0.487975 0.500941
60 2 0.516644 0.481979 0.515459
110 2 0.504271 0.4929 0.518507
106 2 0.500534 0.480779 0.505703
69 2 0.527646 0.494906 0.515851
133 2 0.513382 0.5001 0.505271
56 2 0.516175 0.489425 0.529768
39 1 0.530111 0.475545 0.524184
95 2 0.539855 0.484011 0.513625
42 1 0.539179 0.488814 0.529581
3 2 0.540941 0.496893 0.504774
40 2 0.464502 0.507526 0.515678
13 2 0.456976 0.520088 0.504688
66 2 0.47167 0.522678 0.512479
91 2 0.485931 0.512925 0.507292
104 2 0.492789 0.521427 0.520013
128 2 0.487353 0.501732 0.519574
134 1 0.481004 0.532966 0.524387
80 1 0.474687 0.513542 0.528255
96 2 0.51372 0.504317 0.526621
132 2 0.503355 0.511258 0.510876
20 2 0.515173 0.517165 0.502452
90 2 0.499372 0.510902 0.531654
116 2 0.513813 0.521654 0.523167
73 2 0.531581 0.522451 0.500091
101 1 0.541741 0.505262 0.522431
89 1 0.530664 0.502291 0.534587
125 2 0.527372 0.506017 0.500694
26 2 0.527141 0.513363 0.515671
45 1 0.543821 0.515595 0.508444
29 1 0.474788 0.545571 0.492805
140 1 0.490266 0.54721 0.500703
32 2 0.487291 0.528519 0.504585
47 1 0.475698 0.539378 0.50991
37 1 0.494342 0.539191 0.51506
57 2 0.506253 0.527041 0.510008
137 2 0.519077 0.532336 0.500463
24 2 0.507992 0.544302 0.505014
43 1 0.527858 0.531965 0.515147
79 1 0.510236 0.538392 0.522587
62 1 0.501217 0.462418 0.526696
15 2 0.499752 0.494675 0.533213
17 1 0.493132 0.489513 0.547308
100 1 0.498721 0.475359 0.536962
121 1 0.484595 0.485338 0.532305
139 1 0.517744 0.470046 0.533742
111 1 0.508233 0.486078 0.545662
30 1 0.526988 0.483509 0.542593
49 1 0.486813 0.518731 0.536938
63 1 0.484719 0.501261 0.538476
113 1 0.518603 0.500084 0.546807
86 1 0.501034 0.504252 0.546708
112 1 0.532303 0.518111 0.530561
44 1 0.514195 0.515476 0.540754
107 1 0.500863 0.527216 0.536377
ITEM: TIMESTEP
5570000
ITEM: NUMBER OF ATOMS
141
ITEM: BOX BOUNDS pp pp pp
0.0000000000000000e+00 1.4356000000000000e+02
0.0000000000000000e+00 1.4356000000000000e+02
0.0000000000000000e+00 1.4356000000000000e+02
ITEM: ATOMS id type xs ys zs
38 1 0.488154 0.468356 0.475341
124 1 0.502574 0.457625 0.47693
8 2 0.472463 0.500363 0.469391
72 2 0.497141 0.482008 0.473361
75 1 0.481775 0.495178 0.4545
9 2 0.491796 0.499299 0.466224
18 1 0.494249 0.484301 0.456701
115 1 0.503575 0.470033 0.46363
53 1 0.524299 0.501753 0.460613
83 2 0.511916 0.484964 0.465384
74 1 0.480252 0.511707 0.457552
78 2 0.498069 0.514241 0.458397
27 1 0.499238 0.5003 0.449958
41 1 0.530286 0.517954 0.463132
34 2 0.522014 0.528524 0.470468
65 1 0.513821 0.518647 0.458106
118 2 0.507794 0.502299 0.464284
19 1 0.50619 0.529358 0.468223
35 2 0.473798 0.472694 0.482788
87 1 0.486704 0.456071 0.48544
117 1 0.487406 0.455102 0.504394
120 1 0.471002 0.461341 0.497681
77 1 0.518567 0.461577 0.488006
16 1 0.505261 0.452121 0.493579
46 1 0.460822 0.477401 0.494764
52 2 0.466419 0.487777 0.480135
68 2 0.46412 0.494295 0.495166
58 2 0.486411 0.46892 0.494438
54 2 0.47935 0.484348 0.468373
76 2 0.492428 0.482162 0.488606
109 2 0.483315 0.493642 0.48238
22 2 0.476742 0.480426 0.499301
71 2 0.499862 0.496135 0.482352
48 2 0.491123 0.483232 0.505675
127 1 0.52075 0.469854 0.47039
6 2 0.53081 0.474276 0.483295
141 2 0.503778 0.469345 0.491498
84 2 0.510963 0.477655 0.479418
4 2 0.512279 0.489067 0.490714
12 2 0.515614 0.497582 0.477507
36 1 0.528696 0.487226 0.47015
33 2 0.529153 0.49216 0.487212
135 1 0.459034 0.507174 0.475556
59 1 0.455305 0.509481 0.492492
138 1 0.46312 0.523415 0.486438
82 1 0.469974 0.520931 0.470332
85 2 0.486943 0.526006 0.469065
81 2 0.481918 0.511536 0.474947
25 2 0.47212 0.507078 0.485414
131 2 0.490923 0.507941 0.489051
55 2 0.481592 0.521639 0.489501
103 2 0.500442 0.513831 0.475113
10 2 0.502221 0.517145 0.499319
92 2 0.494197 0.532355 0.482139
125 2 0.525376 0.508501 0.489757
102 2 0.508502 0.507259 0.488799
114 2 0.516812 0.513519 0.474296
64 2 0.510007 0.524483 0.484417
20 2 0.517375 0.521284 0.499344
51 1 0.532561 0.519971 0.479997
105 1 0.541435 0.514564 0.495544
129 2 0.533656 0.502949 0.47471
50 1 0.534479 0.530436 0.499346
29 1 0.476962 0.535239 0.478691
140 1 0.485311 0.540406 0.492719
98 1 0.524963 0.532654 0.484883
21 1 0.517538 0.540616 0.501138
24 2 0.510855 0.541654 0.482439
57 2 0.501474 0.533795 0.496016
1 1 0.505026 0.448396 0.513953
126 2 0.484403 0.469414 0.511964
100 1 0.480454 0.467747 0.528729
62 1 0.497997 0.461564 0.523634
70 1 0.518115 0.458156 0.503778
119 1 0.512942 0.465459 0.518098
11 2 0.500229 0.467398 0.508021
2 2 0.520396 0.477648 0.495524
61 1 0.533229 0.466115 0.49755
23 1 0.532448 0.472297 0.512957
123 1 0.456661 0.488071 0.510345
28 1 0.462465 0.497242 0.525716
130 1 0.466118 0.473147 0.510698
88 2 0.480448 0.497522 0.497895
99 2 0.473093 0.491472 0.512429
97 2 0.487388 0.48118 0.522953
128 2 0.489425 0.49709 0.514646
121 1 0.467698 0.481365 0.52619
7 2 0.479312 0.496645 0.52946
90 2 0.496806 0.494492 0.530645
15 2 0.504152 0.478822 0.521309
67 2 0.524472 0.492255 0.503741
60 2 0.51877 0.481248 0.513911
110 2 0.507253 0.494279 0.516459
106 2 0.506909 0.483087 0.504065
69 2 0.523194 0.498098 0.518239
31 1 0.538994 0.481716 0.497477
95 2 0.537191 0.488244 0.515446
3 2 0.539362 0.498929 0.502209
136 1 0.460744 0.521053 0.505789
40 2 0.463255 0.516331 0.522515
5 2 0.459589 0.50326 0.510268
122 2 0.487891 0.526918 0.503817
14 2 0.486486 0.512154 0.505172
94 2 0.469851 0.510704 0.5004
108 2 0.477132 0.512008 0.518748
66 2 0.471595 0.528637 0.51531
91 2 0.49098 0.508905 0.529169
32 2 0.490987 0.527302 0.519604
93 2 0.49775 0.496416 0.498681
104 2 0.504313 0.52206 0.527877
132 2 0.500461 0.510465 0.514611
133 2 0.513146 0.502482 0.504286
73 2 0.52457 0.528701 0.511815
43 1 0.516371 0.51577 0.516713
137 2 0.505161 0.529639 0.512026
26 2 0.52815 0.510995 0.506969
101 1 0.542022 0.504723 0.518911
45 1 0.542641 0.519207 0.511537
112 1 0.531726 0.516096 0.522416
13 2 0.472326 0.530404 0.499135
134 1 0.477438 0.529291 0.529992
47 1 0.491381 0.544009 0.509539
37 1 0.498436 0.539753 0.528874
79 1 0.501592 0.550013 0.497131
107 1 0.509143 0.545615 0.51469
116 2 0.516396 0.534891 0.525719
17 1 0.486355 0.484964 0.541503
111 1 0.505237 0.494102 0.545808
39 1 0.515378 0.471077 0.532539
139 1 0.499221 0.47778 0.537952
56 2 0.512954 0.489238 0.531553
30 1 0.520843 0.48497 0.546135
42 1 0.52913 0.48085 0.527537
80 1 0.473834 0.512405 0.536986
63 1 0.489057 0.502541 0.543947
86 1 0.503416 0.513182 0.545025
49 1 0.490549 0.522175 0.537667
96 2 0.510221 0.505612 0.52806
113 1 0.517267 0.505755 0.544689
89 1 0.529412 0.497622 0.53301
44 1 0.519433 0.51777 0.535403
ITEM: TIMESTEP
5575000
ITEM: NUMBER OF ATOMS
141
ITEM: BOX BOUNDS pp pp pp
0.0000000000000000e+00 1.4356000000000000e+02
0.0000000000000000e+00 1.4356000000000000e+02
0.0000000000000000e+00 1.4356000000000000e+02
ITEM: ATOMS id type xs ys zs
75 1 0.491701 0.465124 0.466301
8 2 0.469332 0.488353 0.470113
27 1 0.479287 0.492727 0.458133
18 1 0.495341 0.482862 0.458304
54 2 0.480233 0.474783 0.471101
115 1 0.508245 0.474086 0.466745
83 2 0.510104 0.492275 0.46226
82 1 0.463664 0.505909 0.469424
74 1 0.479765 0.509419 0.456947
65 1 0.501137 0.517296 0.455535
19 1 0.49005 0.527475 0.459408
103 2 0.491358 0.513658 0.472927
118 2 0.494183 0.501667 0.459797
41 1 0.518441 0.523247 0.458584
34 2 0.503471 0.531991 0.469628
53 1 0.515179 0.507548 0.457219
114 2 0.51086 0.516128 0.471111
120 1 0.468169 0.464259 0.496524
87 1 0.486272 0.459884 0.481776
117 1 0.482042 0.453809 0.494583
38 1 0.504054 0.462272 0.476039
16 1 0.500275 0.448818 0.490981
124 1 0.521603 0.47094 0.477305
70 1 0.518617 0.458596 0.488713
58 2 0.498514 0.464759 0.493212
61 1 0.532494 0.469489 0.491006
135 1 0.459194 0.49493 0.482405
68 2 0.463895 0.4935 0.501211
52 2 0.465249 0.480418 0.485831
9 2 0.488687 0.491531 0.471648
72 2 0.494492 0.477721 0.4778
35 2 0.48002 0.471945 0.488674
109 2 0.479723 0.488228 0.483431
88 2 0.481699 0.493708 0.499607
76 2 0.496985 0.491458 0.48852
71 2 0.511066 0.487015 0.477309
84 2 0.526588 0.48821 0.470392
141 2 0.510453 0.476264 0.488688
6 2 0.524103 0.486242 0.488474
4 2 0.511928 0.497914 0.490597
77 1 0.539304 0.486935 0.481394
36 1 0.541651 0.497997 0.504746
127 1 0.536318 0.502593 0.475294
31 1 0.539035 0.482067 0.498923
138 1 0.460116 0.519856 0.481212
59 1 0.456827 0.508849 0.49833
78 2 0.47558 0.520389 0.471255
93 2 0.496096 0.4994 0.502465
25 2 0.470649 0.50659 0.488344
81 2 0.4784 0.503153 0.473051
131 2 0.486336 0.503226 0.48678
55 2 0.484214 0.519721 0.486681
92 2 0.487808 0.531729 0.476088
122 2 0.496333 0.530036 0.498153
94 2 0.472986 0.507341 0.505451
51 1 0.530448 0.513899 0.464338
12 2 0.520106 0.502529 0.476008
33 2 0.527651 0.502159 0.492925
125 2 0.516494 0.514136 0.486326
102 2 0.50317 0.50251 0.477959
64 2 0.501063 0.523567 0.482733
10 2 0.503747 0.513311 0.497571
129 2 0.531832 0.516249 0.483691
105 1 0.541975 0.514218 0.497383
85 2 0.47078 0.532582 0.485676
13 2 0.483844 0.539373 0.490203
29 1 0.50356 0.541254 0.48245
140 1 0.508766 0.540989 0.505494
98 1 0.532144 0.532374 0.488567
24 2 0.518756 0.531002 0.4758
57 2 0.512362 0.528496 0.493187
79 1 0.517985 0.544972 0.49003
1 1 0.49411 0.452828 0.506757
62 1 0.486024 0.464802 0.520925
126 2 0.48478 0.465543 0.50595
119 1 0.512855 0.455225 0.505928
42 1 0.519339 0.464462 0.520203
23 1 0.529428 0.458547 0.505229
39 1 0.502623 0.461076 0.520964
130 1 0.468736 0.470526 0.517095
46 1 0.457559 0.484666 0.51386
28 1 0.463293 0.48912 0.531083
123 1 0.456633 0.503401 0.513499
11 2 0.501348 0.471258 0.507497
99 2 0.47264 0.491156 0.517961
22 2 0.473456 0.479119 0.502076
48 2 0.491446 0.478718 0.49851
97 2 0.486757 0.485078 0.514832
15 2 0.498149 0.477384 0.523367
128 2 0.485798 0.502864 0.517358
7 2 0.479245 0.500658 0.53295
90 2 0.492438 0.490744 0.528497
2 2 0.518463 0.472166 0.503134
67 2 0.524741 0.490452 0.504142
60 2 0.513929 0.480819 0.516395
110 2 0.503505 0.494814 0.516852
106 2 0.507936 0.486061 0.501653
69 2 0.518045 0.498134 0.520847
89 1 0.524919 0.479561 0.529932
95 2 0.530863 0.47589 0.513501
3 2 0.533511 0.49331 0.519913
136 1 0.465495 0.523055 0.498286
5 2 0.465854 0.522631 0.514934
134 1 0.476197 0.535768 0.517577
40 2 0.470114 0.509527 0.521017
14 2 0.488076 0.513672 0.501171
108 2 0.482172 0.518277 0.515997
66 2 0.479346 0.527564 0.502865
91 2 0.491091 0.514803 0.529504
32 2 0.49447 0.528071 0.513847
20 2 0.524434 0.520249 0.498734
132 2 0.499191 0.512476 0.513922
133 2 0.512786 0.504953 0.505842
43 1 0.515562 0.515739 0.52124
137 2 0.511038 0.524105 0.507824
104 2 0.502645 0.52568 0.52871
116 2 0.514118 0.534675 0.520197
96 2 0.505987 0.505952 0.530269
101 1 0.532768 0.509247 0.525976
26 2 0.527801 0.507307 0.509677
73 2 0.527099 0.524707 0.516375
45 1 0.542048 0.514934 0.515135
47 1 0.486888 0.542308 0.506875
21 1 0.525063 0.53638 0.503238
107 1 0.516602 0.550624 0.522022
50 1 0.539337 0.5295 0.505751
121 1 0.477679 0.481559 0.530632
100 1 0.489503 0.470323 0.537914
17 1 0.484453 0.487474 0.544383
139 1 0.500892 0.481839 0.545845
56 2 0.510223 0.487674 0.531251
30 1 0.510524 0.470787 0.535411
113 1 0.526445 0.494257 0.535995
80 1 0.475615 0.51952 0.532412
63 1 0.494961 0.504041 0.542501
49 1 0.486722 0.532599 0.529443
86 1 0.502809 0.519111 0.544085
111 1 0.509675 0.497606 0.546549
44 1 0.521263 0.508107 0.538566
112 1 0.516617 0.526375 0.53533
37 1 0.499861 0.543094 0.519877
ITEM: TIMESTEP
5580000
ITEM: NUMBER OF ATOMS
141
ITEM: BOX BOUNDS pp pp pp
0.0000000000000000e+00 1.4356000000000000e+02
0.0000000000000000e+00 1.4356000000000000e+02
0.0000000000000000e+00 1.4356000000000000e+02
ITEM: ATOMS id type xs ys zs
8 2 0.472871 0.494402 0.467926
18 1 0.473111 0.477909 0.466759
115 1 0.486471 0.484058 0.459672
27 1 0.48448 0.499536 0.456037
83 2 0.501775 0.49208 0.462528
84 2 0.518925 0.486011 0.466791
51 1 0.532276 0.496287 0.466142
82 1 0.472677 0.51141 0.467793
74 1 0.483549 0.515732 0.456051
103 2 0.492021 0.510837 0.467653
65 1 0.492986 0.526885 0.463276
118 2 0.5017 0.509241 0.454542
41 1 0.51122 0.521652 0.46329
53 1 0.51661 0.503377 0.459778
24 2 0.525231 0.512486 0.469891
19 1 0.47679 0.528102 0.469412
75 1 0.488118 0.46816 0.464445
87 1 0.491128 0.460064 0.486663
16 1 0.504647 0.463091 0.478818
35 2 0.476117 0.464688 0.49486
58 2 0.505919 0.465099 0.498854
70 1 0.518471 0.460037 0.489422
23 1 0.534132 0.470752 0.48881
135 1 0.462341 0.484736 0.475666
68 2 0.465344 0.492889 0.491038
52 2 0.465076 0.475903 0.491343
9 2 0.490564 0.494097 0.473786
54 2 0.476785 0.468799 0.479272
72 2 0.492992 0.477377 0.478597
109 2 0.4795 0.486173 0.482933
76 2 0.492586 0.488444 0.491969
48 2 0.489942 0.470889 0.498164
22 2 0.476522 0.484811 0.500813
93 2 0.497883 0.501061 0.501287
38 1 0.504641 0.475526 0.464783
124 1 0.52167 0.469514 0.471825
71 2 0.506197 0.489552 0.477756
141 2 0.504363 0.477026 0.490015
4 2 0.51858 0.478624 0.484769
12 2 0.520894 0.497262 0.477871
6 2 0.530015 0.48625 0.492732