ITEM: TIMESTEP
600000
ITEM: NUMBER OF ATOMS
141
ITEM: BOX BOUNDS pp pp pp
0.0000000000000000e+00 1.4356000000000000e+02
0.0000000000000000e+00 1.4356000000000000e+02
0.0000000000000000e+00 1.4356000000000000e+02
ITEM: ATOMS id type xs ys zs
130 1 0.490186 0.465664 0.464285
47 1 0.507468 0.468814 0.46814
85 2 0.467995 0.492391 0.469382
45 1 0.479961 0.478621 0.464608
116 2 0.497328 0.480499 0.461284
75 1 0.485806 0.494519 0.460618
117 1 0.502745 0.498567 0.454962
59 1 0.512598 0.485521 0.462909
77 1 0.530312 0.491712 0.467854
70 1 0.457001 0.506592 0.469855
23 1 0.474344 0.509978 0.463136
113 1 0.489842 0.510319 0.457939
26 2 0.484288 0.522994 0.468628
27 1 0.501203 0.52235 0.463359
43 1 0.518446 0.502762 0.458232
28 1 0.517804 0.520393 0.465237
55 2 0.50557 0.507743 0.469845
58 2 0.46946 0.467582 0.491812
107 1 0.489492 0.45873 0.494216
16 1 0.481047 0.462591 0.478293
17 1 0.498657 0.460157 0.479876
49 1 0.516448 0.465668 0.485116
31 1 0.507161 0.45564 0.495345
94 2 0.532888 0.468232 0.48978
125 2 0.458214 0.494189 0.48384
140 1 0.458333 0.480482 0.495151
25 2 0.469105 0.480148 0.480017
6 2 0.47245 0.492688 0.494399
24 2 0.483659 0.489761 0.479125
137 2 0.482082 0.478528 0.492167
3 2 0.49677 0.487679 0.48951
110 2 0.494664 0.476097 0.477883
132 2 0.497843 0.49265 0.473557
129 2 0.524124 0.47356 0.472358
13 2 0.500288 0.471365 0.493182
72 2 0.509454 0.479736 0.481279
84 2 0.5121 0.492081 0.492417
15 2 0.51719 0.47663 0.496719
8 2 0.525652 0.48572 0.482817
11 2 0.514658 0.496742 0.474901
115 1 0.529385 0.491268 0.499676
18 1 0.541514 0.47945 0.474968
120 1 0.542468 0.484205 0.492755
54 2 0.540609 0.497299 0.481592
20 2 0.458436 0.512347 0.487381
111 1 0.467215 0.524281 0.476785
79 1 0.468888 0.527135 0.494006
10 2 0.470263 0.511222 0.499118
97 2 0.471466 0.503397 0.479386
5 2 0.485023 0.503744 0.491532
126 2 0.487282 0.507563 0.474672
83 2 0.480251 0.518014 0.487221
35 2 0.49566 0.515949 0.49514
90 2 0.496466 0.520981 0.479973
9 2 0.501453 0.504043 0.485534
12 2 0.51355 0.513794 0.481942
91 2 0.526121 0.517936 0.495752
60 2 0.509201 0.52618 0.491969
106 2 0.526848 0.501937 0.487108
33 2 0.512196 0.508295 0.497221
56 2 0.526975 0.526884 0.480091
87 1 0.527631 0.509128 0.471991
44 1 0.540519 0.50276 0.498214
1 1 0.541725 0.514627 0.486228
114 2 0.49051 0.532063 0.491785
39 1 0.493629 0.53803 0.473904
134 1 0.478994 0.536548 0.481252
100 1 0.510073 0.531479 0.473894
52 2 0.504392 0.541336 0.487663
36 1 0.522338 0.536638 0.491602
46 1 0.539437 0.530742 0.492141
63 1 0.476683 0.462857 0.508711
80 1 0.49503 0.455676 0.512798
131 2 0.488582 0.466317 0.523494
51 1 0.524553 0.458578 0.50113
105 1 0.506834 0.462238 0.526349
42 1 0.522266 0.465854 0.518276
81 2 0.506566 0.466454 0.508081
92 2 0.457169 0.498942 0.501506
32 2 0.458765 0.485494 0.513483
102 2 0.499358 0.499005 0.500161
19 1 0.472149 0.475596 0.521442
37 1 0.471004 0.491947 0.528177
7 2 0.490198 0.472198 0.508601
57 2 0.486562 0.48975 0.50413
122 2 0.47438 0.480087 0.506727
67 2 0.471708 0.497731 0.510618
118 2 0.486404 0.48467 0.52067
14 2 0.497871 0.495244 0.516409
22 2 0.500547 0.477539 0.519917
71 2 0.502773 0.483442 0.504994
141 2 0.519249 0.481557 0.511972
103 2 0.511871 0.493173 0.526429
109 2 0.513487 0.497391 0.510036
4 2 0.516676 0.477542 0.528939
104 2 0.529455 0.494821 0.517748
78 2 0.533484 0.473382 0.504764
65 1 0.534068 0.479856 0.524438
136 1 0.544137 0.48981 0.509477
135 1 0.457088 0.501654 0.517376
53 1 0.456259 0.516704 0.506578
139 1 0.468313 0.528206 0.511207
69 2 0.472365 0.511994 0.517552
128 2 0.484021 0.50188 0.523245
66 2 0.481643 0.521181 0.505164
68 2 0.485179 0.506855 0.507881
34 2 0.489458 0.518875 0.520163
119 1 0.473263 0.524523 0.52902
76 2 0.501054 0.514292 0.510159
108 2 0.505838 0.522621 0.524388
93 2 0.516087 0.508917 0.521157
88 2 0.515594 0.522356 0.507404
96 2 0.526849 0.506324 0.507385
95 2 0.529322 0.51958 0.518769
64 2 0.500884 0.507806 0.527224
29 1 0.539202 0.519194 0.50469
101 1 0.541665 0.507082 0.516622
74 1 0.479432 0.540049 0.501739
40 2 0.495535 0.529485 0.507491
30 1 0.492402 0.547045 0.502628
82 1 0.486292 0.537691 0.519659
98 1 0.501258 0.541671 0.518898
50 1 0.517724 0.534111 0.521019
48 2 0.509723 0.537723 0.50573
41 1 0.529964 0.53325 0.506056
73 2 0.494592 0.49223 0.533545
21 1 0.483263 0.477026 0.537768
123 1 0.490846 0.485618 0.549039
61 1 0.481735 0.499328 0.539752
86 1 0.500108 0.474593 0.537216
112 1 0.50791 0.488549 0.541878
133 2 0.525645 0.491113 0.535063
121 1 0.466069 0.507222 0.533209
99 2 0.487205 0.515015 0.536673
38 1 0.497659 0.501712 0.547162
127 1 0.504245 0.521583 0.543573
124 1 0.521153 0.5208 0.536678
2 2 0.512341 0.505322 0.53955
138 1 0.530821 0.506193 0.532005
89 1 0.494036 0.531637 0.532423
62 1 0.512556 0.535541 0.536114
ITEM: TIMESTEP
605000
ITEM: NUMBER OF ATOMS
141
ITEM: BOX BOUNDS pp pp pp
0.0000000000000000e+00 1.4356000000000000e+02
0.0000000000000000e+00 1.4356000000000000e+02
0.0000000000000000e+00 1.4356000000000000e+02
ITEM: ATOMS id type xs ys zs
130 1 0.490204 0.465925 0.464159
47 1 0.508347 0.470213 0.466985
85 2 0.468742 0.49102 0.471413
45 1 0.477284 0.477121 0.466032
116 2 0.494904 0.481885 0.459365
75 1 0.48419 0.494403 0.461554
117 1 0.500271 0.498592 0.454675
59 1 0.511362 0.486277 0.460328
77 1 0.532787 0.491687 0.467812
70 1 0.456678 0.505038 0.472809
23 1 0.473672 0.507379 0.465855
113 1 0.492008 0.512797 0.459673
26 2 0.484698 0.522326 0.470326
27 1 0.502108 0.529468 0.462685
43 1 0.519586 0.502907 0.458737
28 1 0.518439 0.520535 0.463602
55 2 0.505867 0.510029 0.46713
58 2 0.470294 0.464508 0.494554
107 1 0.487561 0.459903 0.49447
16 1 0.479541 0.46565 0.477574
17 1 0.495666 0.45948 0.479142
49 1 0.516532 0.466174 0.482561
31 1 0.50391 0.456114 0.493141
51 1 0.521027 0.460965 0.498649
13 2 0.501493 0.471192 0.489676
94 2 0.53108 0.470548 0.487327
125 2 0.458467 0.495034 0.486601
140 1 0.460055 0.478942 0.498373
25 2 0.471593 0.478682 0.483354
6 2 0.471354 0.49082 0.496384
24 2 0.482977 0.489556 0.479236
137 2 0.483833 0.476226 0.493529
3 2 0.496211 0.487355 0.488981
110 2 0.494103 0.477269 0.475278
102 2 0.499531 0.498421 0.499655
132 2 0.50105 0.493832 0.472167
129 2 0.522122 0.479322 0.470645
72 2 0.511297 0.483437 0.480195
84 2 0.514349 0.495257 0.493064
15 2 0.516338 0.478898 0.496288
8 2 0.526568 0.48858 0.485769
11 2 0.516363 0.499553 0.474489
18 1 0.540213 0.47871 0.476051
120 1 0.542432 0.483081 0.494557
54 2 0.541439 0.497098 0.481966
20 2 0.454236 0.509435 0.490494
111 1 0.467994 0.520127 0.476663
79 1 0.465191 0.524891 0.49198
10 2 0.471195 0.508993 0.497713
97 2 0.472268 0.502792 0.481815
5 2 0.486907 0.501629 0.491068
126 2 0.488897 0.506359 0.474481
83 2 0.481488 0.516923 0.486433
35 2 0.496931 0.514592 0.494058
90 2 0.499319 0.520818 0.478701
9 2 0.502654 0.504551 0.483621
12 2 0.515511 0.514918 0.480941
91 2 0.525278 0.522057 0.495454
60 2 0.509047 0.525882 0.492131
106 2 0.527513 0.504133 0.489561
33 2 0.513837 0.510692 0.498504
56 2 0.529201 0.523989 0.479692
87 1 0.532443 0.507693 0.472226
1 1 0.540928 0.51419 0.489488
44 1 0.541049 0.500343 0.50012
114 2 0.491707 0.528705 0.491488
39 1 0.493045 0.536753 0.476015
134 1 0.4783 0.53335 0.482298
100 1 0.512818 0.53063 0.475865
52 2 0.505041 0.540227 0.487258
36 1 0.521075 0.539004 0.49038
46 1 0.540931 0.53234 0.491795
63 1 0.478546 0.461665 0.512373
80 1 0.493796 0.457586 0.511265
131 2 0.489388 0.468318 0.524263
105 1 0.505089 0.463069 0.52246
42 1 0.519839 0.463741 0.516068
81 2 0.506631 0.468415 0.506257
92 2 0.456552 0.494755 0.503708
32 2 0.463519 0.484497 0.51593
19 1 0.470419 0.471749 0.5258
7 2 0.490498 0.474918 0.508494
57 2 0.485864 0.489803 0.504556
122 2 0.473426 0.476472 0.506532
67 2 0.475059 0.496832 0.511697
118 2 0.481938 0.484647 0.521706
14 2 0.496396 0.495366 0.514745
115 1 0.528226 0.489384 0.502029
22 2 0.500835 0.480123 0.521109
71 2 0.503261 0.484926 0.503758
141 2 0.517547 0.481373 0.513109
103 2 0.511628 0.493484 0.524128
109 2 0.514111 0.498373 0.509358
104 2 0.527803 0.494874 0.519676
78 2 0.531902 0.473173 0.502818
65 1 0.530834 0.477711 0.521629
136 1 0.54068 0.487834 0.512409
135 1 0.461455 0.502987 0.520484
53 1 0.45745 0.514243 0.50695
69 2 0.474364 0.513856 0.515339
128 2 0.485296 0.502325 0.523946
66 2 0.482415 0.522001 0.502617
68 2 0.487773 0.507269 0.507159
34 2 0.489842 0.520269 0.519906
119 1 0.474471 0.527245 0.525973
40 2 0.499309 0.526555 0.507738
76 2 0.502815 0.511418 0.512166
108 2 0.504882 0.523088 0.524366
93 2 0.517325 0.511052 0.521748
88 2 0.516413 0.522838 0.509983
96 2 0.52669 0.506737 0.506831
64 2 0.501937 0.505762 0.528862
95 2 0.530379 0.521127 0.519662
29 1 0.537349 0.52038 0.505497
101 1 0.541196 0.506906 0.516668
139 1 0.467088 0.527667 0.509583
74 1 0.476245 0.5387 0.498906
30 1 0.494173 0.542774 0.502444
82 1 0.483233 0.535025 0.514264
98 1 0.500907 0.538897 0.518546
50 1 0.51797 0.534504 0.522354
48 2 0.511533 0.538746 0.503003
41 1 0.528197 0.53583 0.50935
37 1 0.469521 0.491296 0.532005
73 2 0.494703 0.491938 0.530532
21 1 0.481889 0.481029 0.538063
123 1 0.492191 0.487251 0.552209
61 1 0.481805 0.498924 0.540473
86 1 0.499186 0.474467 0.536919
4 2 0.514403 0.475274 0.528945
112 1 0.507456 0.488629 0.541836
133 2 0.525187 0.489205 0.533602
121 1 0.471651 0.510586 0.531426
99 2 0.487344 0.51556 0.535099
38 1 0.49739 0.502344 0.546458
127 1 0.502578 0.519504 0.541995
124 1 0.51979 0.52141 0.533244
2 2 0.514408 0.504224 0.538831
138 1 0.532417 0.506979 0.531788
89 1 0.489996 0.534439 0.530285
62 1 0.506731 0.535173 0.535549
ITEM: TIMESTEP
610000
ITEM: NUMBER OF ATOMS
141
ITEM: BOX BOUNDS pp pp pp
0.0000000000000000e+00 1.4356000000000000e+02
0.0000000000000000e+00 1.4356000000000000e+02
0.0000000000000000e+00 1.4356000000000000e+02
ITEM: ATOMS id type xs ys zs
130 1 0.491559 0.465333 0.462722
47 1 0.506913 0.471969 0.466448
85 2 0.468423 0.491165 0.469599
45 1 0.478046 0.478639 0.465954
116 2 0.494133 0.483087 0.45946
75 1 0.482863 0.494728 0.461844
117 1 0.499893 0.49974 0.455
59 1 0.512281 0.488188 0.459882
77 1 0.529845 0.493753 0.466723
23 1 0.471618 0.50809 0.465613
113 1 0.489289 0.511203 0.45752
27 1 0.50252 0.523092 0.463803
43 1 0.519996 0.504809 0.460146
28 1 0.519179 0.521149 0.466251
55 2 0.505779 0.507779 0.469931
58 2 0.469297 0.467236 0.494068
107 1 0.486069 0.45948 0.494169
16 1 0.480169 0.466561 0.479121
17 1 0.497873 0.458234 0.477657
49 1 0.515346 0.465048 0.482466
31 1 0.505013 0.453526 0.49173
51 1 0.521367 0.461081 0.499661
94 2 0.53059 0.471964 0.488916
125 2 0.459845 0.492251 0.487012
140 1 0.458234 0.479839 0.498731
25 2 0.469016 0.479373 0.482976
6 2 0.474354 0.491655 0.495541
24 2 0.483263 0.491329 0.478544
137 2 0.483529 0.476944 0.492468
3 2 0.496525 0.487259 0.489523
110 2 0.492742 0.477764 0.476281
132 2 0.50034 0.492481 0.47096
13 2 0.499561 0.470517 0.488244
129 2 0.523425 0.477804 0.471775
72 2 0.508942 0.481359 0.480457
84 2 0.513446 0.492486 0.495654
15 2 0.517342 0.4766 0.497183
8 2 0.526384 0.486997 0.484391
11 2 0.516763 0.497946 0.476394
18 1 0.540144 0.480499 0.474334
120 1 0.539866 0.486945 0.492842
54 2 0.540727 0.49883 0.47939
70 1 0.457266 0.505938 0.474191
20 2 0.456578 0.509565 0.490376
111 1 0.467184 0.519952 0.477061
79 1 0.467046 0.526351 0.49335
26 2 0.485217 0.522885 0.469529
5 2 0.485877 0.5025 0.490746
97 2 0.472108 0.502817 0.481956
10 2 0.471196 0.509301 0.498274
126 2 0.487099 0.508122 0.474143
83 2 0.482129 0.517947 0.485899
35 2 0.495407 0.513554 0.495619
90 2 0.498835 0.52041 0.478518
9 2 0.501994 0.503572 0.48431
12 2 0.515256 0.513847 0.481795
91 2 0.523686 0.521032 0.496146
60 2 0.50902 0.524855 0.493661
106 2 0.526067 0.502201 0.490577
33 2 0.511991 0.508873 0.499036
56 2 0.52735 0.523433 0.481001
87 1 0.531271 0.51045 0.471653
1 1 0.539883 0.515735 0.487715
114 2 0.491398 0.52924 0.49234
39 1 0.493816 0.535996 0.475851
134 1 0.476408 0.531895 0.480788
74 1 0.479544 0.540089 0.495841
100 1 0.513152 0.530789 0.47672
52 2 0.50503 0.539722 0.488089
36 1 0.521067 0.538591 0.49031
46 1 0.538863 0.532976 0.491655
63 1 0.476324 0.460485 0.50835
80 1 0.493429 0.453537 0.508911
131 2 0.488667 0.468321 0.523132
105 1 0.504793 0.459939 0.522027
42 1 0.521188 0.466181 0.517233
81 2 0.506785 0.466149 0.505636
92 2 0.458514 0.497263 0.502832
32 2 0.46271 0.483854 0.514599
37 1 0.471692 0.491965 0.530354
19 1 0.47333 0.471517 0.522311
7 2 0.48954 0.470902 0.507299
57 2 0.487288 0.488452 0.505247
122 2 0.474514 0.478135 0.505836
67 2 0.473813 0.495252 0.512632
118 2 0.484396 0.484765 0.520332
14 2 0.498556 0.495629 0.516893
22 2 0.501974 0.478147 0.520149
115 1 0.527439 0.490613 0.503417
71 2 0.502078 0.482038 0.505524
141 2 0.517115 0.482097 0.514536
103 2 0.512079 0.491782 0.527771
109 2 0.51323 0.497771 0.511979
104 2 0.527902 0.49492 0.520496
78 2 0.532225 0.474661 0.50452
65 1 0.532101 0.476228 0.524146
136 1 0.541506 0.490015 0.511139
135 1 0.459993 0.499658 0.522305
53 1 0.459042 0.516823 0.50616
128 2 0.484816 0.50216 0.523992
69 2 0.472957 0.513914 0.51622
66 2 0.48145 0.522954 0.501931
68 2 0.485262 0.506185 0.507361
34 2 0.488654 0.518592 0.51831
40 2 0.49741 0.526326 0.506747
102 2 0.498958 0.499481 0.501705
64 2 0.500879 0.507703 0.528028
76 2 0.502063 0.511889 0.511255
108 2 0.504244 0.522915 0.524271
93 2 0.516923 0.509317 0.521936
88 2 0.516845 0.521433 0.510531
96 2 0.525968 0.507086 0.507231
44 1 0.541085 0.503405 0.499162
95 2 0.529543 0.521382 0.519739
29 1 0.540078 0.522556 0.505011
101 1 0.540691 0.508489 0.515898
139 1 0.469699 0.530275 0.510707
30 1 0.496601 0.543899 0.501256
82 1 0.484085 0.53746 0.514977
98 1 0.501661 0.540835 0.517199
50 1 0.517414 0.533977 0.521465
48 2 0.510798 0.5354 0.505094
41 1 0.528195 0.535172 0.505711
73 2 0.495297 0.489834 0.531195
21 1 0.481959 0.479226 0.536851
123 1 0.492849 0.488095 0.546481
86 1 0.497453 0.474216 0.537709
4 2 0.513781 0.476062 0.533019
112 1 0.509235 0.487677 0.543918
133 2 0.525888 0.49016 0.537354
121 1 0.474101 0.511889 0.533307
119 1 0.475933 0.527777 0.527845
61 1 0.483671 0.501933 0.541496
99 2 0.489225 0.516256 0.535305
38 1 0.50033 0.503343 0.544393
127 1 0.504828 0.518399 0.541085
124 1 0.518186 0.522108 0.532626
2 2 0.517623 0.504351 0.539886
138 1 0.532783 0.50794 0.532045
89 1 0.492387 0.534427 0.528891
62 1 0.5068 0.534718 0.535254
ITEM: TIMESTEP
615000
ITEM: NUMBER OF ATOMS
141
ITEM: BOX BOUNDS pp pp pp
0.0000000000000000e+00 1.4356000000000000e+02
0.0000000000000000e+00 1.4356000000000000e+02
0.0000000000000000e+00 1.4356000000000000e+02
ITEM: ATOMS id type xs ys zs
130 1 0.491275 0.465018 0.465645
45 1 0.480123 0.478393 0.465589
116 2 0.497532 0.482964 0.461043
75 1 0.484774 0.495303 0.461545
47 1 0.508325 0.466955 0.46854
117 1 0.502459 0.499476 0.457554
59 1 0.514856 0.486234 0.459757
129 2 0.524349 0.474815 0.471968
77 1 0.530674 0.493353 0.468762
70 1 0.459008 0.50624 0.470886
23 1 0.474574 0.507474 0.463035
113 1 0.490589 0.513647 0.458767
27 1 0.501662 0.526502 0.462552
43 1 0.519423 0.503333 0.459524
28 1 0.51928 0.521745 0.464261
55 2 0.507106 0.511093 0.468735
58 2 0.472023 0.468209 0.493148
107 1 0.486301 0.463275 0.497987
16 1 0.479182 0.466124 0.477321
17 1 0.49434 0.459619 0.481934
49 1 0.515298 0.463411 0.483739
31 1 0.50118 0.453881 0.496303
51 1 0.519657 0.458571 0.498506
85 2 0.468198 0.491364 0.469367
125 2 0.457308 0.49293 0.484423
140 1 0.458406 0.480834 0.495333
25 2 0.46667 0.478301 0.478866
6 2 0.472896 0.491054 0.493641
24 2 0.484317 0.488902 0.478892
137 2 0.482818 0.479068 0.490727
3 2 0.497023 0.488945 0.488484
110 2 0.494294 0.476216 0.47657
132 2 0.498334 0.493664 0.471796
13 2 0.499994 0.471982 0.492554
72 2 0.50979 0.481213 0.478127
84 2 0.512527 0.493163 0.493133
15 2 0.517093 0.477656 0.494664
8 2 0.524766 0.487069 0.484607
11 2 0.516158 0.499362 0.475365
94 2 0.531042 0.470471 0.487117
18 1 0.539443 0.481112 0.477857
120 1 0.54484 0.48125 0.494586
54 2 0.539609 0.498354 0.485573
20 2 0.458974 0.5114 0.486057
111 1 0.467189 0.520244 0.475151
79 1 0.46741 0.527127 0.494509
26 2 0.483787 0.523373 0.470577
97 2 0.472337 0.502859 0.481899
5 2 0.486609 0.500992 0.492103
10 2 0.471345 0.509224 0.497935
126 2 0.489555 0.507611 0.475612
83 2 0.48042 0.518652 0.486817
35 2 0.493145 0.516043 0.496564
90 2 0.499068 0.521717 0.478267
9 2 0.503123 0.504849 0.483664
12 2 0.516472 0.517491 0.481071
91 2 0.523375 0.521128 0.493916
60 2 0.507142 0.525153 0.49226
106 2 0.524852 0.505049 0.488774
33 2 0.511152 0.509519 0.497188
56 2 0.528768 0.527987 0.477473
87 1 0.529265 0.50929 0.471837
1 1 0.53724 0.515797 0.485307
44 1 0.541556 0.497767 0.503065
114 2 0.491662 0.532302 0.490378
39 1 0.491523 0.537653 0.474334
134 1 0.476792 0.535293 0.483139
74 1 0.478842 0.541236 0.500067
100 1 0.509823 0.533104 0.474461
52 2 0.503368 0.542624 0.488014
36 1 0.520136 0.538522 0.487799
46 1 0.538176 0.531416 0.492707
63 1 0.479019 0.460137 0.51613
80 1 0.495677 0.459836 0.512804
105 1 0.507267 0.463664 0.524873
42 1 0.52289 0.465335 0.51767
81 2 0.507825 0.469535 0.507646
92 2 0.457247 0.498473 0.50059
32 2 0.461645 0.483097 0.514816
37 1 0.469874 0.490872 0.52806
131 2 0.489109 0.470337 0.524349
19 1 0.470742 0.475131 0.526221
7 2 0.490662 0.475219 0.508105
57 2 0.486367 0.490196 0.503301
122 2 0.474036 0.476471 0.507308
67 2 0.471505 0.494949 0.512152
118 2 0.483211 0.485475 0.518573
14 2 0.497268 0.496028 0.517174
115 1 0.528457 0.487909 0.501007
102 2 0.499629 0.499937 0.501512
22 2 0.501716 0.480077 0.520256
71 2 0.505223 0.484194 0.503904
141 2 0.520493 0.481793 0.513739
103 2 0.512107 0.493144 0.525687
109 2 0.513893 0.49686 0.509648
104 2 0.528206 0.494989 0.518305
78 2 0.530114 0.469904 0.505101
65 1 0.534053 0.47973 0.525051
136 1 0.543233 0.485274 0.513322
135 1 0.458155 0.50007 0.519167
53 1 0.456295 0.514739 0.506664
128 2 0.483995 0.50292 0.524277
69 2 0.469937 0.511395 0.515156
66 2 0.483067 0.525861 0.503466
68 2 0.484825 0.507041 0.506452
34 2 0.488618 0.517963 0.519437
40 2 0.498862 0.526402 0.50754
119 1 0.473501 0.524639 0.526124
76 2 0.501637 0.510164 0.511798
108 2 0.507023 0.520699 0.524648
93 2 0.517261 0.508436 0.519654
88 2 0.515147 0.520282 0.508514
96 2 0.527285 0.506303 0.505304
64 2 0.49976 0.507447 0.528805
95 2 0.528696 0.518125 0.517086
29 1 0.538466 0.517246 0.501491
101 1 0.541423 0.505344 0.517224
139 1 0.468007 0.529361 0.51131
30 1 0.495191 0.54224 0.503331
82 1 0.484035 0.535072 0.517006
98 1 0.502097 0.53859 0.520522
50 1 0.518385 0.533967 0.52111
48 2 0.51323 0.539833 0.504302
41 1 0.528386 0.532552 0.507276
73 2 0.493695 0.491991 0.533271
21 1 0.483859 0.479383 0.536835
123 1 0.495771 0.485984 0.548686
86 1 0.501549 0.476476 0.537136
61 1 0.479619 0.49774 0.540474
4 2 0.517775 0.477154 0.530946
112 1 0.509982 0.488321 0.542373
133 2 0.525031 0.491605 0.5352
121 1 0.469384 0.509375 0.532942
99 2 0.486634 0.513729 0.53684
38 1 0.500393 0.503487 0.546085
127 1 0.503316 0.519083 0.541564
124 1 0.521121 0.521347 0.533151
2 2 0.51555 0.505047 0.537642
138 1 0.531871 0.506921 0.531365
89 1 0.493127 0.528229 0.531054
62 1 0.508775 0.533459 0.535265
ITEM: TIMESTEP
620000
ITEM: NUMBER OF ATOMS
141
ITEM: BOX BOUNDS pp pp pp
0.0000000000000000e+00 1.4356000000000000e+02
0.0000000000000000e+00 1.4356000000000000e+02
0.0000000000000000e+00 1.4356000000000000e+02
ITEM: ATOMS id type xs ys zs
130 1 0.490703 0.462947 0.466798
47 1 0.505596 0.466346 0.468154
45 1 0.479016 0.477684 0.468485
116 2 0.495158 0.479677 0.461855
75 1 0.484487 0.495899 0.462544
117 1 0.502333 0.496996 0.455462
59 1 0.511895 0.484512 0.461127
77 1 0.531687 0.490348 0.466582
23 1 0.474542 0.510619 0.462743
113 1 0.489795 0.511151 0.456545
27 1 0.499007 0.523002 0.461479
43 1 0.520335 0.500025 0.457719
28 1 0.521477 0.518429 0.464163
55 2 0.507084 0.509633 0.467049
58 2 0.470385 0.469663 0.498892
107 1 0.486282 0.459059 0.496276
16 1 0.480593 0.46553 0.47966
17 1 0.497752 0.460722 0.482378
49 1 0.514957 0.465741 0.483545
31 1 0.506313 0.456563 0.496063
85 2 0.469181 0.493901 0.471208
125 2 0.45973 0.49413 0.484908
140 1 0.457749 0.479275 0.494793
25 2 0.469403 0.47772 0.48176
6 2 0.472099 0.490743 0.495386
24 2 0.482575 0.490526 0.480206
137 2 0.484896 0.476507 0.491995
3 2 0.497212 0.490213 0.487394
110 2 0.49467 0.47774 0.47806
132 2 0.500424 0.493806 0.470599
129 2 0.525751 0.476151 0.471063
13 2 0.500174 0.473465 0.493159
72 2 0.510397 0.48061 0.480206
84 2 0.512612 0.494126 0.491261
15 2 0.517412 0.477961 0.494659
8 2 0.527356 0.486799 0.483139
11 2 0.516739 0.496557 0.474664
94 2 0.531679 0.47088 0.487872
18 1 0.54151 0.479846 0.476444
120 1 0.541451 0.485504 0.493333
54 2 0.542181 0.497061 0.479645
70 1 0.45819 0.508154 0.472599
20 2 0.456185 0.511343 0.490051
111 1 0.46554 0.521613 0.480465
79 1 0.466161 0.526164 0.497028
26 2 0.482401 0.522246 0.472474
97 2 0.471096 0.506411 0.482868
5 2 0.483785 0.501421 0.491471
126 2 0.48813 0.505418 0.47515
83 2 0.479957 0.51759 0.489162
35 2 0.495173 0.513949 0.493698
90 2 0.497907 0.519541 0.478511
102 2 0.499545 0.500704 0.498521
9 2 0.503327 0.504372 0.481854
12 2 0.516759 0.514459 0.479341
91 2 0.524499 0.521147 0.495265
60 2 0.507183 0.52678 0.494528
106 2 0.52641 0.50356 0.488136
33 2 0.513705 0.508903 0.497157
56 2 0.530049 0.524639 0.478154
87 1 0.531313 0.506184 0.471972
1 1 0.540549 0.512401 0.48678
114 2 0.489277 0.53104 0.49229
39 1 0.495039 0.536376 0.472222
134 1 0.477136 0.53466 0.483342
100 1 0.51293 0.531317 0.473288
52 2 0.502049 0.540266 0.487461
36 1 0.519071 0.537883 0.488468
46 1 0.537938 0.529725 0.490935
63 1 0.477746 0.458495 0.51144
80 1 0.496626 0.456805 0.512516
131 2 0.486192 0.468628 0.523151
51 1 0.523503 0.462723 0.500385
105 1 0.506391 0.464095 0.523258
42 1 0.52187 0.465088 0.517654
81 2 0.50977 0.468991 0.507132
19 1 0.469299 0.472979 0.520153
92 2 0.458764 0.497919 0.501777
32 2 0.460709 0.485318 0.512898
37 1 0.469224 0.491309 0.527462
67 2 0.472614 0.496628 0.511333
7 2 0.490191 0.473172 0.507885
57 2 0.486629 0.489647 0.502404
122 2 0.475955 0.479972 0.507607
118 2 0.483824 0.485569 0.521138
14 2 0.496965 0.495211 0.513107
22 2 0.499351 0.480394 0.518382
71 2 0.505738 0.484986 0.504299
141 2 0.516683 0.481643 0.514307
103 2 0.509547 0.491999 0.524611
109 2 0.513765 0.498788 0.509744
104 2 0.52636 0.495953 0.518875
115 1 0.528413 0.494312 0.501695
78 2 0.531074 0.478613 0.504129
65 1 0.532364 0.48081 0.52254
136 1 0.541699 0.489046 0.511168
135 1 0.458525 0.502535 0.520893
53 1 0.457225 0.51435 0.507319
139 1 0.467903 0.528573 0.512936
10 2 0.470819 0.509014 0.500326
128 2 0.484656 0.502195 0.52385
69 2 0.472579 0.511751 0.51699
66 2 0.481674 0.523468 0.505515
68 2 0.487149 0.506793 0.508186
34 2 0.490179 0.518945 0.518667
40 2 0.498114 0.527292 0.507452
119 1 0.475784 0.52518 0.528886
76 2 0.503879 0.51178 0.511262
108 2 0.506914 0.524666 0.523727
93 2 0.516757 0.510835 0.520608
88 2 0.515341 0.523599 0.509741
96 2 0.528005 0.509667 0.507382
64 2 0.50175 0.505508 0.5279
44 1 0.543817 0.50203 0.500783
95 2 0.530021 0.52035 0.519516
29 1 0.540394 0.518885 0.503971
101 1 0.540401 0.505109 0.517177
74 1 0.478171 0.540305 0.503059
30 1 0.49576 0.543895 0.50286
82 1 0.485386 0.536413 0.517073
98 1 0.502221 0.540182 0.519979
50 1 0.522042 0.534887 0.521572
48 2 0.511376 0.53924 0.504719
41 1 0.52844 0.532769 0.50681
73 2 0.494628 0.489758 0.531472
21 1 0.478964 0.478764 0.535432
123 1 0.492446 0.482862 0.548279
86 1 0.496373 0.47353 0.536384
61 1 0.4804 0.495536 0.539322
4 2 0.51131 0.477623 0.531839
112 1 0.50733 0.488063 0.542933
133 2 0.522191 0.491244 0.53535
121 1 0.469838 0.508405 0.5352
99 2 0.487436 0.512754 0.534738
38 1 0.496004 0.500158 0.543697
127 1 0.503355 0.520567 0.539611
124 1 0.521153 0.522091 0.534235
2 2 0.513811 0.505094 0.537682
138 1 0.533708 0.509221 0.53225
89 1 0.492354 0.531373 0.53028
62 1 0.511071 0.53655 0.534987
ITEM: TIMESTEP
625000
ITEM: NUMBER OF ATOMS
141
ITEM: BOX BOUNDS pp pp pp
0.0000000000000000e+00 1.4356000000000000e+02
0.0000000000000000e+00 1.4356000000000000e+02
0.0000000000000000e+00 1.4356000000000000e+02
ITEM: ATOMS id type xs ys zs
130 1 0.490911 0.463732 0.467215
47 1 0.508644 0.471697 0.466524
85 2 0.467519 0.493483 0.46847
45 1 0.477749 0.477532 0.469031
116 2 0.494 0.480567 0.460062
75 1 0.482904 0.496305 0.460926
117 1 0.498984 0.496451 0.453902
59 1 0.512653 0.487758 0.465005
77 1 0.53132 0.491416 0.465394
23 1 0.47126 0.50968 0.465136
113 1 0.491895 0.511093 0.45671
27 1 0.501058 0.525191 0.463304
26 2 0.484477 0.522293 0.468091
43 1 0.519477 0.502873 0.457601
28 1 0.518412 0.517994 0.462308
55 2 0.50364 0.508119 0.466577
58 2 0.470169 0.465741 0.494427
107 1 0.48571 0.459865 0.495783
16 1 0.478318 0.463261 0.479996
17 1 0.499073 0.458332 0.481318
49 1 0.515004 0.464471 0.481715
13 2 0.500136 0.473202 0.491385
31 1 0.502569 0.45519 0.49733
125 2 0.45758 0.49537 0.485232
140 1 0.458856 0.479702 0.497533
25 2 0.469838 0.480642 0.482358
6 2 0.471675 0.491253 0.493353
24 2 0.481739 0.490264 0.478623
137 2 0.484254 0.476192 0.491301
3 2 0.496636 0.489095 0.488144
110 2 0.494735 0.47553 0.477215
132 2 0.497203 0.493931 0.471531
129 2 0.523447 0.475782 0.472762
72 2 0.510009 0.481962 0.480537
84 2 0.513172 0.495126 0.490204
15 2 0.519246 0.478504 0.495044
8 2 0.526413 0.490481 0.482783
11 2 0.514936 0.499192 0.475309
115 1 0.527961 0.492153 0.500638
102 2 0.499377 0.499403 0.500388
94 2 0.531208 0.471199 0.487305
18 1 0.538744 0.479427 0.474965
120 1 0.540285 0.483412 0.494227
54 2 0.540721 0.496228 0.481355
70 1 0.456106 0.506414 0.473374
20 2 0.459192 0.511385 0.489878
111 1 0.466229 0.520551 0.478422
79 1 0.467674 0.524689 0.495431
97 2 0.471096 0.50345 0.482647
5 2 0.486305 0.500978 0.491672
126 2 0.486591 0.504877 0.474681
83 2 0.48027 0.519126 0.486484
90 2 0.496296 0.518644 0.477404
10 2 0.473185 0.509484 0.499202
35 2 0.49572 0.515273 0.495259
9 2 0.502789 0.505734 0.484302
12 2 0.515663 0.516648 0.479531
91 2 0.52522 0.523104 0.497196
60 2 0.509174 0.526351 0.492681
106 2 0.526517 0.506863 0.489267
33 2 0.511647 0.509534 0.497708
56 2 0.528145 0.525529 0.477137
87 1 0.531062 0.506658 0.471573
1 1 0.540617 0.514056 0.485516
44 1 0.541352 0.500627 0.500377
114 2 0.49247 0.529481 0.489573
39 1 0.491481 0.53642 0.473156
134 1 0.47606 0.533634 0.480685
74 1 0.482262 0.539742 0.499654
100 1 0.50945 0.534581 0.474769
52 2 0.503324 0.541179 0.488287
36 1 0.522014 0.538263 0.486509
46 1 0.539162 0.528699 0.48998
63 1 0.480088 0.463643 0.510215
80 1 0.497377 0.455814 0.511498
131 2 0.489851 0.4658 0.523291
51 1 0.520951 0.461607 0.497336
105 1 0.508049 0.463793 0.524629
42 1 0.52312 0.466413 0.520436
81 2 0.509782 0.469032 0.507924
92 2 0.458108 0.498101 0.502097
32 2 0.461844 0.485984 0.512978
19 1 0.471378 0.472451 0.520959
67 2 0.475657 0.494959 0.51183
7 2 0.494832 0.471547 0.507708
57 2 0.487816 0.487368 0.503207
122 2 0.474158 0.478268 0.503835
118 2 0.486047 0.481779 0.518706
14 2 0.495189 0.495825 0.516625
22 2 0.501582 0.478515 0.520502
71 2 0.504894 0.483466 0.502866
141 2 0.51801 0.48212 0.515105
103 2 0.509745 0.494589 0.524528
109 2 0.513228 0.497142 0.508564
104 2 0.525528 0.495825 0.519953
78 2 0.530557 0.475582 0.506847
65 1 0.533973 0.482354 0.528075
136 1 0.539523 0.487112 0.511832
135 1 0.460287 0.501205 0.51993
53 1 0.456303 0.514874 0.506825
139 1 0.468069 0.529833 0.513482
128 2 0.482585 0.505081 0.524239
69 2 0.47018 0.513496 0.515601
66 2 0.482988 0.523613 0.503055
68 2 0.48613 0.507569 0.507087
34 2 0.489261 0.520419 0.519823
76 2 0.50217 0.51015 0.513798
108 2 0.505274 0.523314 0.523759
93 2 0.516039 0.510656 0.522124
88 2 0.514887 0.52361 0.510577
96 2 0.524617 0.507988 0.508474
40 2 0.499647 0.524557 0.506335
64 2 0.501263 0.507771 0.529757
29 1 0.539779 0.516561 0.502849
95 2 0.530169 0.518863 0.518097
101 1 0.540011 0.502413 0.518559
30 1 0.500095 0.543962 0.503129
82 1 0.487165 0.537225 0.515936
98 1 0.503798 0.538635 0.519166
50 1 0.521075 0.535122 0.523903
48 2 0.517794 0.538043 0.504198
41 1 0.533636 0.532024 0.509789
37 1 0.470764 0.489291 0.528262
73 2 0.493842 0.491624 0.530372
21 1 0.482374 0.477864 0.534385
123 1 0.491475 0.486044 0.546247
61 1 0.480561 0.496075 0.54043
86 1 0.499486 0.474965 0.535807
4 2 0.516503 0.478203 0.532315
112 1 0.507074 0.490198 0.542128
133 2 0.523025 0.492303 0.537776
121 1 0.469585 0.507717 0.53379
119 1 0.476586 0.524368 0.528345
99 2 0.487076 0.515191 0.536821
89 1 0.491825 0.531068 0.531212
38 1 0.496276 0.503562 0.545332
127 1 0.503249 0.519598 0.543626
124 1 0.519543 0.522879 0.534608
2 2 0.513238 0.506584 0.540834
138 1 0.529039 0.50787 0.534223
62 1 0.507956 0.534645 0.53615
ITEM: TIMESTEP
630000
ITEM: NUMBER OF ATOMS
141
ITEM: BOX BOUNDS pp pp pp
0.0000000000000000e+00 1.4356000000000000e+02
0.0000000000000000e+00 1.4356000000000000e+02
0.0000000000000000e+00 1.4356000000000000e+02
ITEM: ATOMS id type xs ys zs
130 1 0.487346 0.465102 0.465364
47 1 0.505747 0.470236 0.466097
85 2 0.468571 0.492662 0.470968
45 1 0.477619 0.478525 0.46837
116 2 0.495093 0.481314 0.461159
75 1 0.485206 0.495636 0.461779
132 2 0.499245 0.493703 0.471889
59 1 0.51236 0.486972 0.461933
77 1 0.529988 0.49241 0.469342
117 1 0.502923 0.498132 0.455692
23 1 0.473085 0.506933 0.46331
113 1 0.491285 0.512414 0.457548
27 1 0.500104 0.524147 0.46262
43 1 0.519071 0.502613 0.459745
28 1 0.518003 0.520089 0.465419
55 2 0.503819 0.508905 0.46901
58 2 0.47414 0.464822 0.497063
107 1 0.49098 0.459826 0.495143
16 1 0.481566 0.464983 0.480347
17 1 0.498697 0.461462 0.479263
49 1 0.51688 0.464738 0.48012
31 1 0.508186 0.456304 0.491078
129 2 0.524218 0.477414 0.46945
94 2 0.531773 0.468652 0.489824
125 2 0.457784 0.493517 0.484886
140 1 0.45857 0.481857 0.498109
13 2 0.50324 0.47301 0.491411
25 2 0.468258 0.476462 0.484614
6 2 0.471277 0.491093 0.493141
24 2 0.481523 0.490612 0.479955
137 2 0.482906 0.477462 0.491838
3 2 0.495293 0.48876 0.489272
110 2 0.492396 0.477697 0.477574
72 2 0.510399 0.482249 0.478208
84 2 0.512581 0.491216 0.492297
15 2 0.5182 0.477021 0.496609
8 2 0.526318 0.487275 0.485073
11 2 0.517445 0.49969 0.47787
18 1 0.538581 0.476057 0.477588
120 1 0.545238 0.483067 0.494934
54 2 0.540903 0.49561 0.482482