ITEM: TIMESTEP
7200000
ITEM: NUMBER OF ATOMS
141
ITEM: BOX BOUNDS pp pp pp
0.0000000000000000e+00 1.4356000000000000e+02
0.0000000000000000e+00 1.4356000000000000e+02
0.0000000000000000e+00 1.4356000000000000e+02
ITEM: ATOMS id type xs ys zs
1 1 0.466244 0.479014 0.469386
89 1 0.498429 0.47297 0.465887
19 1 0.476605 0.495757 0.462429
121 1 0.483245 0.482539 0.467557
107 1 0.496703 0.483868 0.453915
94 2 0.499556 0.489911 0.468991
135 1 0.513149 0.479994 0.461913
30 1 0.510574 0.497214 0.455551
51 1 0.527806 0.496806 0.459698
5 2 0.486734 0.515906 0.467233
26 2 0.493345 0.50137 0.456304
36 1 0.501192 0.516949 0.461107
77 1 0.518617 0.511698 0.459081
80 1 0.523916 0.525374 0.464472
62 1 0.536487 0.509271 0.46429
123 1 0.492149 0.462177 0.478118
97 2 0.485248 0.469987 0.494403
46 1 0.472778 0.46086 0.497544
115 1 0.493523 0.456335 0.494713
28 1 0.508861 0.463689 0.474603
21 1 0.512712 0.458913 0.491075
29 1 0.526677 0.46252 0.479959
44 1 0.538266 0.466924 0.49494
31 1 0.462061 0.483184 0.485614
23 1 0.456725 0.499091 0.486895
76 2 0.46653 0.493599 0.497801
88 2 0.490987 0.479999 0.483717
125 2 0.474805 0.492789 0.479706
57 2 0.475032 0.473718 0.48307
126 2 0.480701 0.485439 0.4953
4 2 0.497173 0.484444 0.499351
104 2 0.524597 0.478734 0.474021
64 2 0.517943 0.492713 0.473347
83 2 0.503914 0.471998 0.492874
73 2 0.50761 0.478282 0.478828
12 2 0.502818 0.493504 0.485255
102 2 0.513228 0.486803 0.499217
58 2 0.526361 0.490963 0.486976
132 2 0.520874 0.474403 0.491612
59 1 0.538445 0.492628 0.473368
47 1 0.539489 0.478955 0.484522
140 1 0.543365 0.495984 0.490245
7 2 0.457834 0.516421 0.484998
52 2 0.499386 0.523976 0.476915
93 2 0.489209 0.50123 0.475566
48 2 0.487609 0.500329 0.49233
41 1 0.471031 0.50996 0.473403
70 1 0.478318 0.527874 0.475975
11 2 0.485459 0.515159 0.483773
34 2 0.472147 0.505656 0.490779
116 2 0.472504 0.521837 0.492383
133 2 0.487578 0.528922 0.490147
25 2 0.508189 0.506166 0.471617
128 2 0.500136 0.50931 0.486037
60 2 0.51612 0.503412 0.48772
92 2 0.515499 0.521696 0.480994
109 2 0.503979 0.522484 0.492345
68 2 0.523973 0.509726 0.474568
137 2 0.528752 0.525988 0.498081
10 2 0.533727 0.523109 0.480223
122 2 0.530608 0.509095 0.489659
136 1 0.544619 0.509921 0.479562
50 1 0.544203 0.513372 0.496427
37 1 0.46287 0.53462 0.48482
105 1 0.490864 0.53888 0.477044
74 1 0.476694 0.542311 0.485623
16 1 0.490059 0.544854 0.49686
100 1 0.510849 0.535261 0.473073
22 2 0.522858 0.535901 0.485259
53 1 0.504601 0.540309 0.490171
87 1 0.472732 0.462803 0.5139
75 1 0.485165 0.467655 0.523531
111 1 0.490243 0.458843 0.509368
39 1 0.500064 0.461615 0.526025
56 2 0.506818 0.459708 0.506499
98 1 0.518136 0.467195 0.525185
38 1 0.522888 0.462008 0.504427
71 2 0.466536 0.476951 0.503423
45 1 0.456364 0.492743 0.511919
65 1 0.468051 0.476027 0.521321
9 2 0.481357 0.475954 0.510007
67 2 0.473541 0.490135 0.512106
20 2 0.498032 0.472271 0.5084
129 2 0.488319 0.495179 0.508782
55 2 0.48953 0.484463 0.521377
118 2 0.480124 0.496181 0.527025
33 2 0.522362 0.499608 0.502831
24 2 0.504823 0.478208 0.524578
114 2 0.514923 0.47514 0.510709
141 2 0.520691 0.490126 0.515059
3 2 0.504414 0.489998 0.513418
78 2 0.528449 0.480853 0.502382
112 1 0.530603 0.476845 0.517555
32 2 0.538395 0.495207 0.507719
130 1 0.54317 0.477265 0.505902
124 1 0.536063 0.493137 0.525893
131 2 0.465094 0.504254 0.519429
90 2 0.469415 0.521909 0.51047
8 2 0.460571 0.509221 0.502029
79 1 0.458138 0.527218 0.50007
40 2 0.48865 0.513895 0.500573
54 2 0.492398 0.507039 0.518313
108 2 0.47745 0.506756 0.50803
84 2 0.476666 0.513218 0.523276
69 2 0.485285 0.523022 0.512725
110 2 0.489439 0.520894 0.528764
99 2 0.503536 0.500856 0.501735
35 2 0.515968 0.514453 0.500085
13 2 0.502528 0.515614 0.507764
103 2 0.518732 0.520613 0.516133
72 2 0.512684 0.504963 0.515203
85 2 0.528288 0.506299 0.519667
15 2 0.504789 0.513284 0.52668
91 2 0.503943 0.529226 0.520915
14 2 0.532069 0.512367 0.505977
134 1 0.534941 0.52237 0.520447
2 2 0.49795 0.530654 0.504123
139 1 0.47581 0.52991 0.523012
49 1 0.47689 0.536339 0.503037
138 1 0.48915 0.53891 0.515287
43 1 0.51536 0.539251 0.516478
66 2 0.514627 0.532252 0.502064
17 1 0.504784 0.549314 0.506383
119 1 0.464258 0.490993 0.529694
106 2 0.493221 0.475956 0.535987
27 1 0.476766 0.479164 0.535192
6 2 0.488763 0.491194 0.541168
95 2 0.502312 0.493788 0.530163
42 1 0.510328 0.473711 0.539323
82 1 0.506513 0.487781 0.544537
113 1 0.519224 0.483441 0.530985
81 2 0.491194 0.506024 0.533968
61 1 0.474838 0.504175 0.542789
63 1 0.481381 0.520771 0.543251
86 1 0.490034 0.507623 0.551554
96 2 0.518333 0.500245 0.530395
117 1 0.518623 0.519209 0.532944
120 1 0.501332 0.523941 0.541502
127 1 0.505877 0.504466 0.543332
18 1 0.490152 0.535669 0.531787
101 1 0.513241 0.534693 0.533178
ITEM: TIMESTEP
7205000
ITEM: NUMBER OF ATOMS
141
ITEM: BOX BOUNDS pp pp pp
0.0000000000000000e+00 1.4356000000000000e+02
0.0000000000000000e+00 1.4356000000000000e+02
0.0000000000000000e+00 1.4356000000000000e+02
ITEM: ATOMS id type xs ys zs
89 1 0.502139 0.466952 0.473729
107 1 0.498428 0.478489 0.458897
19 1 0.498283 0.495278 0.454393
121 1 0.465978 0.481755 0.475473
1 1 0.472917 0.497605 0.466797
30 1 0.517216 0.475693 0.471594
26 2 0.512074 0.490613 0.464294
51 1 0.529104 0.487835 0.472116
41 1 0.484293 0.510611 0.462645
5 2 0.501691 0.502475 0.469868
36 1 0.50033 0.520444 0.465564
77 1 0.511363 0.510223 0.457825
100 1 0.507033 0.536551 0.469662
46 1 0.469633 0.463104 0.502036
115 1 0.476195 0.462185 0.485479
28 1 0.493465 0.454996 0.480275
135 1 0.535984 0.47259 0.481737
21 1 0.501319 0.449318 0.493453
29 1 0.515678 0.456873 0.480826
83 2 0.50488 0.466393 0.490042
38 1 0.53198 0.459921 0.494081
44 1 0.546566 0.472692 0.495897
31 1 0.452711 0.477847 0.48769
23 1 0.458207 0.497647 0.473796
76 2 0.455584 0.49245 0.49473
94 2 0.4878 0.488071 0.4682
123 1 0.485909 0.472541 0.477143
88 2 0.482459 0.48752 0.485359
57 2 0.469257 0.477901 0.491171
126 2 0.472548 0.491772 0.498375
4 2 0.493981 0.481347 0.495069
97 2 0.490045 0.465305 0.4939
64 2 0.513622 0.495117 0.479688
12 2 0.498187 0.494608 0.48737
104 2 0.526738 0.487766 0.489124
73 2 0.502359 0.483245 0.475971
102 2 0.510703 0.482819 0.490102
132 2 0.520925 0.471667 0.487833
78 2 0.532458 0.476694 0.502084
58 2 0.54345 0.50295 0.495876
59 1 0.544139 0.486433 0.488254
47 1 0.550224 0.488411 0.503501
7 2 0.459073 0.509652 0.488782
125 2 0.469753 0.512882 0.474565
37 1 0.471442 0.539118 0.494301
52 2 0.486494 0.5198 0.480568
34 2 0.471881 0.500637 0.484999
93 2 0.487371 0.503465 0.47609
48 2 0.486947 0.504563 0.493701
11 2 0.473249 0.522133 0.489968
40 2 0.493316 0.520043 0.497929
128 2 0.499186 0.51093 0.48408
70 1 0.473742 0.533289 0.476531
108 2 0.472979 0.508528 0.500135
80 1 0.519561 0.525308 0.462232
25 2 0.5139 0.514157 0.475932
60 2 0.518222 0.499461 0.4964
92 2 0.503089 0.526536 0.483024
68 2 0.525368 0.507827 0.485017
35 2 0.512905 0.514019 0.4942
10 2 0.530199 0.518501 0.475433
122 2 0.528275 0.509446 0.503565
62 1 0.526724 0.504145 0.466505
136 1 0.539717 0.504912 0.476723
50 1 0.546058 0.518627 0.486702
140 1 0.544021 0.506682 0.512246
133 2 0.488177 0.533846 0.490786
74 1 0.483928 0.548016 0.48427
105 1 0.490268 0.53404 0.473688
16 1 0.485883 0.550145 0.500747
49 1 0.46338 0.533716 0.511023
22 2 0.519083 0.530158 0.481369
53 1 0.501463 0.543309 0.484923
109 2 0.507181 0.528659 0.497774
66 2 0.517245 0.540766 0.495678
87 1 0.485692 0.461851 0.512803
111 1 0.482918 0.450691 0.499394
39 1 0.499264 0.464265 0.523663
56 2 0.499781 0.455104 0.508694
98 1 0.515632 0.45616 0.499146
112 1 0.531293 0.46231 0.509246
42 1 0.51396 0.462807 0.515041
71 2 0.463522 0.47988 0.506764
65 1 0.468753 0.469303 0.518415
45 1 0.460367 0.494819 0.51197
67 2 0.475678 0.501356 0.515876
9 2 0.48075 0.47569 0.504423
20 2 0.498073 0.472571 0.506536
129 2 0.4875 0.493575 0.505261
55 2 0.490901 0.483566 0.518527
119 1 0.472995 0.484054 0.520562
24 2 0.507378 0.479056 0.518884
114 2 0.516389 0.475459 0.503714
141 2 0.523376 0.480773 0.517021
3 2 0.505622 0.489727 0.505661
33 2 0.531207 0.492508 0.504476
96 2 0.515508 0.493173 0.525322
113 1 0.516236 0.472216 0.530672
32 2 0.529559 0.499668 0.519185
130 1 0.542778 0.487986 0.519562
8 2 0.456206 0.509047 0.507229
131 2 0.461865 0.507153 0.522313
79 1 0.46024 0.523316 0.497904
90 2 0.471154 0.519097 0.514211
116 2 0.479551 0.527051 0.504186
118 2 0.486843 0.496563 0.526581
95 2 0.499244 0.497736 0.517578
54 2 0.485749 0.511514 0.509027
69 2 0.486163 0.524747 0.520138
139 1 0.473765 0.530393 0.529689
137 2 0.525957 0.523523 0.49406
99 2 0.501197 0.504041 0.500694
13 2 0.502393 0.516384 0.512155
103 2 0.51816 0.521452 0.510114
72 2 0.514539 0.504797 0.511505
85 2 0.531197 0.517635 0.519098
15 2 0.510653 0.509934 0.52544
91 2 0.503831 0.527827 0.523301
14 2 0.541195 0.520141 0.502513
2 2 0.496111 0.531582 0.508559
138 1 0.48089 0.540027 0.51535
18 1 0.49577 0.546244 0.519086
134 1 0.512674 0.536784 0.512845
17 1 0.503547 0.547496 0.502269
117 1 0.528715 0.534335 0.510043
75 1 0.482909 0.470676 0.529739
106 2 0.499595 0.481109 0.532625
27 1 0.484171 0.484049 0.538243
6 2 0.501719 0.497774 0.534525
82 1 0.515023 0.48603 0.542074
124 1 0.529073 0.486061 0.533441
84 2 0.476708 0.513082 0.527276
81 2 0.49411 0.512435 0.527733
61 1 0.471208 0.496999 0.532353
63 1 0.489864 0.505459 0.541079
120 1 0.479697 0.520181 0.541509
86 1 0.510863 0.506131 0.545454
101 1 0.519431 0.524986 0.528999
127 1 0.526547 0.5042 0.535711
43 1 0.505733 0.522029 0.539187
110 2 0.490168 0.534634 0.53431
ITEM: TIMESTEP
7210000
ITEM: NUMBER OF ATOMS
141
ITEM: BOX BOUNDS pp pp pp
0.0000000000000000e+00 1.4356000000000000e+02
0.0000000000000000e+00 1.4356000000000000e+02
0.0000000000000000e+00 1.4356000000000000e+02
ITEM: ATOMS id type xs ys zs
107 1 0.495426 0.467614 0.464332
123 1 0.481222 0.463667 0.471407
94 2 0.484203 0.48159 0.464726
73 2 0.495929 0.492434 0.469039
62 1 0.50692 0.499519 0.455871
29 1 0.508505 0.480164 0.466139
30 1 0.524951 0.486217 0.463048
26 2 0.512598 0.495924 0.472619
19 1 0.486142 0.498617 0.457232
41 1 0.474373 0.498381 0.471124
93 2 0.489475 0.508905 0.467289
5 2 0.506937 0.51335 0.470094
36 1 0.49583 0.526127 0.466277
77 1 0.500022 0.514666 0.45488
100 1 0.515205 0.525353 0.464319
10 2 0.520745 0.504743 0.463688
80 1 0.532267 0.520059 0.464196
71 2 0.471456 0.464216 0.500049
28 1 0.491518 0.456055 0.481959
46 1 0.485574 0.454036 0.497944
111 1 0.503031 0.453746 0.494147
21 1 0.505425 0.463682 0.476472
98 1 0.522993 0.46202 0.485395
132 2 0.522316 0.474214 0.474511
115 1 0.459944 0.475147 0.489247
34 2 0.472847 0.479965 0.479292
126 2 0.474646 0.481431 0.496129
23 1 0.45196 0.488248 0.496777
97 2 0.495731 0.467641 0.495561
89 1 0.494205 0.475216 0.479613
57 2 0.480965 0.46837 0.487993
88 2 0.485971 0.489614 0.481064
4 2 0.491707 0.482231 0.497901
48 2 0.484511 0.497276 0.49683
99 2 0.499007 0.499438 0.497068
83 2 0.510705 0.474421 0.488228
102 2 0.503898 0.489361 0.485381
60 2 0.51962 0.488094 0.484746
35 2 0.51577 0.498975 0.497027
78 2 0.524498 0.477052 0.49679
3 2 0.508375 0.485034 0.500117
135 1 0.536186 0.475666 0.485602
51 1 0.541406 0.506111 0.471211
104 2 0.534079 0.490777 0.475237
59 1 0.54182 0.482051 0.500753
58 2 0.53365 0.495754 0.492012
121 1 0.457284 0.494528 0.477308
76 2 0.456092 0.506039 0.492303
1 1 0.478871 0.521566 0.474572
7 2 0.466373 0.512965 0.483592
125 2 0.46986 0.495361 0.488742
11 2 0.481915 0.510745 0.485518
128 2 0.49821 0.521362 0.482578
12 2 0.496514 0.503695 0.481374
40 2 0.489175 0.514038 0.501972
116 2 0.476894 0.523902 0.492813
64 2 0.525903 0.504068 0.480709
25 2 0.509601 0.509988 0.488571
68 2 0.522013 0.515351 0.49577
22 2 0.519493 0.519332 0.479343
136 1 0.549268 0.495877 0.489001
50 1 0.536878 0.520479 0.481679
14 2 0.539924 0.50978 0.495767
70 1 0.46579 0.533755 0.487377
52 2 0.489963 0.535363 0.47984
133 2 0.492447 0.529299 0.494295
74 1 0.485414 0.54365 0.496409
105 1 0.502209 0.544167 0.492753
109 2 0.508662 0.526585 0.497188
16 1 0.497072 0.545682 0.510498
92 2 0.507869 0.535758 0.477107
137 2 0.521478 0.533333 0.489323
17 1 0.519575 0.548938 0.484417
53 1 0.528337 0.533787 0.472836
65 1 0.481581 0.453491 0.51487
87 1 0.496658 0.455598 0.510098
75 1 0.486741 0.466079 0.522053
56 2 0.512344 0.465818 0.502125
38 1 0.527839 0.459382 0.504311
42 1 0.507562 0.461442 0.519062
112 1 0.511867 0.47332 0.529512
31 1 0.456327 0.49205 0.518845
45 1 0.45971 0.478364 0.506041
67 2 0.466097 0.495891 0.504548
8 2 0.471688 0.496497 0.521881
119 1 0.470668 0.467657 0.519234
9 2 0.485208 0.470198 0.506421
20 2 0.500459 0.475232 0.512921
129 2 0.49468 0.491966 0.510704
55 2 0.483877 0.483606 0.525207
118 2 0.476558 0.485909 0.511769
6 2 0.48662 0.503571 0.527654
24 2 0.501667 0.487094 0.524029
114 2 0.517361 0.478853 0.513099
141 2 0.516737 0.490064 0.524488
33 2 0.525374 0.491213 0.505972
72 2 0.509327 0.495785 0.5126
44 1 0.532239 0.472488 0.512335
47 1 0.54219 0.484626 0.518388
37 1 0.459405 0.522904 0.498131
79 1 0.454144 0.508619 0.508966
90 2 0.467264 0.5129 0.515893
49 1 0.469655 0.537609 0.504204
108 2 0.470207 0.50977 0.500098
131 2 0.469312 0.509361 0.531371
54 2 0.481722 0.502608 0.511454
69 2 0.480946 0.527811 0.507681
95 2 0.497564 0.506793 0.516034
84 2 0.485927 0.517478 0.517938
13 2 0.509433 0.512008 0.505106
122 2 0.526685 0.506126 0.507599
15 2 0.517689 0.508976 0.520561
91 2 0.506239 0.519838 0.521955
103 2 0.518512 0.524186 0.509336
96 2 0.504005 0.503058 0.530672
32 2 0.531153 0.496204 0.521907
85 2 0.536197 0.520265 0.511759
140 1 0.542053 0.503426 0.511324
138 1 0.47975 0.543643 0.516994
110 2 0.492463 0.530071 0.523583
66 2 0.514508 0.541304 0.502568
2 2 0.498481 0.527874 0.509138
18 1 0.509926 0.53742 0.519869
134 1 0.526416 0.538241 0.51445
101 1 0.506363 0.531863 0.533953
117 1 0.534538 0.526804 0.495939
61 1 0.464141 0.480609 0.528009
106 2 0.493199 0.490594 0.540149
27 1 0.475251 0.494055 0.537559
39 1 0.495264 0.474741 0.532444
113 1 0.50924 0.486954 0.539682
82 1 0.504418 0.503553 0.545533
124 1 0.520867 0.500392 0.537103
130 1 0.529489 0.478573 0.526855
139 1 0.471588 0.528842 0.521315
63 1 0.479689 0.523863 0.534445
86 1 0.484606 0.506747 0.544099
120 1 0.497227 0.516548 0.536392
81 2 0.52475 0.524575 0.524327
43 1 0.514884 0.515448 0.536323
127 1 0.536661 0.510403 0.529105
ITEM: TIMESTEP
7215000
ITEM: NUMBER OF ATOMS
141
ITEM: BOX BOUNDS pp pp pp
0.0000000000000000e+00 1.4356000000000000e+02
0.0000000000000000e+00 1.4356000000000000e+02
0.0000000000000000e+00 1.4356000000000000e+02
ITEM: ATOMS id type xs ys zs
123 1 0.49139 0.466936 0.468566
28 1 0.507622 0.46672 0.473084
107 1 0.509115 0.477383 0.461211
94 2 0.479761 0.483212 0.467744
19 1 0.492833 0.484637 0.45907
62 1 0.520705 0.489843 0.452711
29 1 0.523183 0.46924 0.474669
26 2 0.509415 0.492673 0.467725
104 2 0.526774 0.488053 0.46928
41 1 0.478259 0.498529 0.460195
36 1 0.492439 0.511785 0.459409
128 2 0.503412 0.525381 0.465968
1 1 0.478562 0.518474 0.464775
77 1 0.505384 0.495799 0.451603
100 1 0.510892 0.513996 0.453756
10 2 0.520412 0.502726 0.462685
115 1 0.462248 0.466367 0.490602
46 1 0.473394 0.461446 0.476297
97 2 0.477926 0.461078 0.494635
111 1 0.490216 0.459281 0.482937
56 2 0.512187 0.467341 0.500913
23 1 0.457086 0.484883 0.484304
34 2 0.468368 0.493759 0.475366
125 2 0.471867 0.501726 0.489112
121 1 0.454901 0.500865 0.488296
57 2 0.469225 0.476904 0.478722
126 2 0.470925 0.481153 0.493804
73 2 0.49583 0.498137 0.468457
89 1 0.486108 0.474741 0.483481
88 2 0.481622 0.490756 0.483926
102 2 0.495142 0.487124 0.492097
30 1 0.538344 0.479857 0.480777
98 1 0.513085 0.458931 0.486312
21 1 0.497042 0.482899 0.475056
83 2 0.502455 0.473134 0.488113
60 2 0.514417 0.48284 0.480358
78 2 0.523898 0.472404 0.491249
58 2 0.525874 0.488145 0.490571
132 2 0.539052 0.497362 0.487204
135 1 0.540587 0.497788 0.506188
76 2 0.455906 0.510979 0.500684
7 2 0.464726 0.513072 0.479471
37 1 0.464915 0.524045 0.4953
11 2 0.489877 0.503417 0.488609
93 2 0.482365 0.504092 0.474288
116 2 0.479961 0.5176 0.487437
133 2 0.491521 0.52717 0.492973
12 2 0.495271 0.515239 0.478264
70 1 0.470338 0.528656 0.476619
35 2 0.505564 0.498156 0.484645
5 2 0.507703 0.509512 0.469135
64 2 0.524533 0.500907 0.480644
25 2 0.502719 0.514402 0.493842
22 2 0.514701 0.513684 0.484349
92 2 0.505812 0.530268 0.48369
122 2 0.516361 0.501801 0.497232
14 2 0.532897 0.50853 0.496369
80 1 0.520662 0.521395 0.466699
51 1 0.538334 0.504861 0.468985
136 1 0.547675 0.512157 0.490727
50 1 0.532194 0.516402 0.48033
74 1 0.478655 0.538339 0.488694
52 2 0.488892 0.531629 0.47729
105 1 0.494359 0.545945 0.491929
109 2 0.507645 0.535503 0.500052
53 1 0.515623 0.537809 0.472734
137 2 0.522896 0.529873 0.486291
17 1 0.511889 0.545454 0.485564
65 1 0.482084 0.458284 0.513101
75 1 0.502898 0.462409 0.516582
119 1 0.472152 0.465451 0.524691
87 1 0.493697 0.462195 0.4995
38 1 0.520905 0.461311 0.516404
44 1 0.531287 0.469856 0.505909
31 1 0.457204 0.492587 0.520812
45 1 0.45772 0.479765 0.509642
67 2 0.461831 0.495749 0.503164
4 2 0.484992 0.476101 0.499644
48 2 0.479725 0.494971 0.502629
99 2 0.498733 0.500615 0.502761
71 2 0.468983 0.465997 0.507965
9 2 0.488524 0.473298 0.514972
129 2 0.490585 0.490042 0.513407
118 2 0.473378 0.481891 0.514693
24 2 0.498937 0.478342 0.525446
3 2 0.511149 0.48736 0.498068
20 2 0.501716 0.478726 0.506842
114 2 0.514605 0.47805 0.51763
141 2 0.52014 0.498563 0.523179
33 2 0.525686 0.488718 0.507992
72 2 0.508546 0.491691 0.51489
59 1 0.539704 0.483629 0.497285
112 1 0.539291 0.481791 0.513233
140 1 0.535112 0.49462 0.521968
8 2 0.462591 0.506831 0.516586
79 1 0.466047 0.522235 0.513251
108 2 0.472755 0.510156 0.502854
90 2 0.469789 0.516195 0.531151
40 2 0.489123 0.512434 0.503898
54 2 0.478673 0.501057 0.518711
69 2 0.479633 0.526336 0.503158
95 2 0.496341 0.505101 0.518986
84 2 0.483594 0.517098 0.518592
2 2 0.498554 0.526524 0.508823
68 2 0.518055 0.521301 0.498539
13 2 0.508428 0.509566 0.509525
15 2 0.516915 0.513279 0.523304
91 2 0.500428 0.520516 0.524405
32 2 0.526183 0.506589 0.510524
85 2 0.528154 0.522307 0.514492
103 2 0.512028 0.526147 0.515991
134 1 0.53686 0.525234 0.495422
47 1 0.538004 0.512838 0.524591
117 1 0.542405 0.514584 0.508425
49 1 0.471572 0.539913 0.506206
139 1 0.477708 0.530823 0.522966
138 1 0.488022 0.540566 0.507145
110 2 0.492963 0.538225 0.523317
66 2 0.523907 0.534653 0.502023
16 1 0.508327 0.543466 0.51662
18 1 0.525804 0.538601 0.518195
39 1 0.490333 0.465229 0.529184
42 1 0.512403 0.468995 0.532137
61 1 0.466302 0.499385 0.531668
55 2 0.480744 0.4818 0.52939
6 2 0.492066 0.492646 0.529894
27 1 0.493857 0.478561 0.540155
106 2 0.512354 0.487011 0.532856
113 1 0.529265 0.478338 0.52395
124 1 0.513838 0.499295 0.54685
82 1 0.495329 0.497856 0.54542
130 1 0.528399 0.490022 0.537705
131 2 0.485239 0.508447 0.533092
86 1 0.479333 0.49469 0.54368
120 1 0.498137 0.512917 0.539974
63 1 0.487177 0.525853 0.534977
96 2 0.507779 0.50179 0.531762
81 2 0.523695 0.526454 0.529118
43 1 0.513874 0.515085 0.54225
101 1 0.506423 0.531789 0.53275
127 1 0.526685 0.506704 0.536645
ITEM: TIMESTEP
7220000
ITEM: NUMBER OF ATOMS
141
ITEM: BOX BOUNDS pp pp pp
0.0000000000000000e+00 1.4356000000000000e+02
0.0000000000000000e+00 1.4356000000000000e+02
0.0000000000000000e+00 1.4356000000000000e+02
ITEM: ATOMS id type xs ys zs
28 1 0.497191 0.460942 0.479645
123 1 0.489546 0.468722 0.461285
19 1 0.494815 0.488706 0.456652
94 2 0.479207 0.48548 0.459275
107 1 0.50391 0.478201 0.461507
26 2 0.506442 0.494235 0.469084
104 2 0.521383 0.486363 0.469252
1 1 0.467799 0.509591 0.467629
41 1 0.484203 0.502105 0.461535
77 1 0.499092 0.510357 0.460463
36 1 0.481985 0.522636 0.465436
128 2 0.495992 0.526046 0.471773
62 1 0.508122 0.49934 0.450339
100 1 0.510644 0.52409 0.461916
10 2 0.516021 0.506293 0.462681
53 1 0.507565 0.537763 0.469968
115 1 0.467015 0.473147 0.484872
89 1 0.481808 0.466116 0.487817
57 2 0.47931 0.470979 0.472288
46 1 0.516451 0.459977 0.487876
29 1 0.511013 0.466539 0.470572
98 1 0.519625 0.458624 0.505032
23 1 0.462574 0.481204 0.470477
126 2 0.455549 0.485843 0.484774
34 2 0.472928 0.494898 0.47255
125 2 0.468361 0.494559 0.491589
73 2 0.489877 0.492585 0.473426
88 2 0.478162 0.48345 0.48131
102 2 0.492587 0.485307 0.490871
21 1 0.49377 0.476447 0.476137
4 2 0.475848 0.481888 0.497662
83 2 0.503666 0.471788 0.490847
78 2 0.518286 0.473266 0.498649
60 2 0.508053 0.48358 0.481876
58 2 0.526142 0.489516 0.493577
35 2 0.501278 0.499663 0.482331
3 2 0.50995 0.489982 0.496604
64 2 0.517962 0.498466 0.482186
30 1 0.526487 0.474967 0.483516
132 2 0.534087 0.491018 0.479149
59 1 0.53377 0.47583 0.499145
121 1 0.457208 0.501547 0.478017
7 2 0.463523 0.511886 0.488194
70 1 0.467239 0.526276 0.478568
76 2 0.454684 0.500402 0.498235
11 2 0.483856 0.500173 0.488041
93 2 0.476868 0.513296 0.481343
116 2 0.474691 0.522974 0.495212
133 2 0.488637 0.522469 0.4875
12 2 0.491146 0.510552 0.476432
52 2 0.481862 0.534823 0.479422
5 2 0.50934 0.514468 0.47635
80 1 0.524991 0.523566 0.470473
25 2 0.504182 0.514556 0.493341
22 2 0.520723 0.519637 0.486651
92 2 0.505554 0.528164 0.485074
122 2 0.516703 0.505442 0.498218
137 2 0.530447 0.533253 0.494961
109 2 0.515077 0.526991 0.499138
51 1 0.53021 0.506856 0.473211
14 2 0.53191 0.508 0.49075
136 1 0.546532 0.504165 0.483086
50 1 0.536911 0.521944 0.482205
134 1 0.544082 0.523182 0.500847
37 1 0.467828 0.539746 0.488018
74 1 0.486092 0.537167 0.494999
105 1 0.496951 0.542584 0.483526
17 1 0.519084 0.53885 0.485826
138 1 0.506281 0.54231 0.498406
71 2 0.458909 0.479018 0.501267
97 2 0.473328 0.467362 0.506486
65 1 0.486181 0.454742 0.501983
87 1 0.500805 0.455774 0.511633
111 1 0.502975 0.455308 0.494719
38 1 0.515993 0.461485 0.521446
44 1 0.529492 0.468934 0.513842
31 1 0.454079 0.486894 0.518717
45 1 0.467302 0.477752 0.518687
67 2 0.468625 0.491303 0.510763
119 1 0.484327 0.463281 0.517118
55 2 0.467941 0.492973 0.527752
9 2 0.490194 0.470809 0.503617
48 2 0.483115 0.494309 0.503575
129 2 0.496645 0.487769 0.510972
118 2 0.48367 0.479666 0.514132
24 2 0.496307 0.472855 0.522555
6 2 0.485563 0.492933 0.52429
99 2 0.498268 0.499345 0.500142
20 2 0.505588 0.47305 0.507462
56 2 0.521941 0.484954 0.510063
114 2 0.509641 0.480802 0.521364
141 2 0.523752 0.49346 0.523223
72 2 0.509953 0.495128 0.511746
106 2 0.501897 0.496412 0.53002
113 1 0.5257 0.475502 0.528273
33 2 0.529462 0.499153 0.505218
135 1 0.542515 0.490959 0.497439
112 1 0.53722 0.4866 0.513436
140 1 0.54424 0.500976 0.51983
79 1 0.455089 0.516988 0.50371
8 2 0.461772 0.507826 0.516068
49 1 0.471628 0.538796 0.504082
54 2 0.477091 0.505611 0.517731
108 2 0.471738 0.506348 0.502054
40 2 0.487951 0.513173 0.501648
69 2 0.484307 0.528741 0.508464
95 2 0.493773 0.503139 0.514597
84 2 0.469705 0.521699 0.51224
2 2 0.49818 0.528187 0.500898
91 2 0.495744 0.519484 0.517242
68 2 0.529177 0.517086 0.504974
13 2 0.505683 0.512966 0.508479
15 2 0.510806 0.507633 0.52418
32 2 0.528094 0.508049 0.519188
103 2 0.519734 0.522871 0.517178
85 2 0.531553 0.531971 0.512277
47 1 0.536914 0.520363 0.524519
117 1 0.543726 0.50654 0.503476
139 1 0.494418 0.544738 0.508715
63 1 0.491699 0.534361 0.522636
66 2 0.521398 0.542348 0.50304
16 1 0.508778 0.538285 0.515693
18 1 0.524348 0.533772 0.528723
27 1 0.50225 0.458998 0.527966
75 1 0.508287 0.471683 0.534665
39 1 0.478695 0.473414 0.528406
86 1 0.492835 0.481429 0.536542
42 1 0.523347 0.486549 0.543222
124 1 0.514474 0.500613 0.541462
82 1 0.506975 0.4858 0.541893
130 1 0.539814 0.48683 0.528876
61 1 0.466093 0.51161 0.531336
90 2 0.480306 0.520697 0.525051
131 2 0.489817 0.508327 0.530114
120 1 0.479594 0.49916 0.539938
96 2 0.494104 0.502096 0.544342
43 1 0.492295 0.524147 0.535645
81 2 0.521393 0.516716 0.533303
101 1 0.505888 0.51463 0.540693
127 1 0.532045 0.501581 0.534496
110 2 0.507208 0.524456 0.527097
ITEM: TIMESTEP
7225000
ITEM: NUMBER OF ATOMS
141
ITEM: BOX BOUNDS pp pp pp
0.0000000000000000e+00 1.4356000000000000e+02
0.0000000000000000e+00 1.4356000000000000e+02
0.0000000000000000e+00 1.4356000000000000e+02
ITEM: ATOMS id type xs ys zs
19 1 0.498231 0.482175 0.455855
94 2 0.483518 0.484277 0.467643
57 2 0.483941 0.468004 0.469778
123 1 0.51424 0.478792 0.464871
26 2 0.505871 0.491697 0.469556
104 2 0.529724 0.48765 0.464635
23 1 0.462498 0.505901 0.468245
41 1 0.478192 0.503487 0.464861
1 1 0.467873 0.521341 0.475434
36 1 0.492409 0.517734 0.463955
77 1 0.49845 0.502287 0.458256
62 1 0.510573 0.519308 0.462307
10 2 0.518684 0.502455 0.46291
80 1 0.501106 0.533738 0.463159
51 1 0.527213 0.517002 0.46329
105 1 0.48861 0.5338 0.475037
100 1 0.504502 0.538303 0.477256
115 1 0.470181 0.476354 0.481807
28 1 0.502764 0.467046 0.469335
46 1 0.496601 0.455612 0.481765
65 1 0.478761 0.458847 0.494328
29 1 0.513952 0.463824 0.47942
111 1 0.512226 0.453886 0.492772
83 2 0.502291 0.467943 0.492028
78 2 0.519505 0.46847 0.495637
126 2 0.457757 0.478278 0.497699
121 1 0.456926 0.503048 0.48487
34 2 0.46858 0.490298 0.473677
125 2 0.466413 0.490072 0.491522
89 1 0.485356 0.469533 0.485794
88 2 0.482388 0.48715 0.484737
102 2 0.496816 0.482379 0.494582
21 1 0.497852 0.481249 0.476563
4 2 0.472855 0.473385 0.497643
107 1 0.527734 0.47234 0.473463
35 2 0.503964 0.494959 0.485595
60 2 0.513779 0.480784 0.482894
58 2 0.527055 0.486798 0.488017
3 2 0.514529 0.486654 0.499668
64 2 0.519371 0.496777 0.478485
122 2 0.515712 0.502255 0.494879
30 1 0.541169 0.488988 0.478426
59 1 0.539648 0.473746 0.487359
135 1 0.542004 0.491043 0.496161
7 2 0.469699 0.503756 0.501461
70 1 0.461057 0.518617 0.490897
37 1 0.468789 0.529665 0.50105
73 2 0.490491 0.498802 0.474197
11 2 0.487405 0.502251 0.491558
93 2 0.473231 0.501256 0.483874
12 2 0.483381 0.512593 0.478849
116 2 0.480579 0.517982 0.495832
133 2 0.495305 0.525962 0.489878
5 2 0.504729 0.507009 0.474097
128 2 0.504594 0.523086 0.476674
25 2 0.501592 0.510882 0.490607
22 2 0.519533 0.513678 0.478202
137 2 0.526811 0.515739 0.497066
132 2 0.533294 0.503282 0.471077
14 2 0.530855 0.50277 0.487478
136 1 0.54809 0.504858 0.481892
50 1 0.537884 0.518053 0.476918
134 1 0.542133 0.519675 0.492764
52 2 0.478282 0.530011 0.487598
74 1 0.491547 0.542807 0.488791
49 1 0.475879 0.544602 0.498248
109 2 0.527805 0.528094 0.486418
53 1 0.520266 0.531441 0.470664
92 2 0.512992 0.522006 0.491317
119 1 0.477577 0.467841 0.52743
97 2 0.478861 0.459941 0.51049
87 1 0.492931 0.453825 0.496253
38 1 0.493135 0.465669 0.519767
98 1 0.502396 0.459551 0.509645
113 1 0.521017 0.463578 0.5122
76 2 0.453632 0.495907 0.500502
71 2 0.466869 0.487515 0.507442
31 1 0.450949 0.483969 0.513326
45 1 0.464116 0.469212 0.511636
67 2 0.466739 0.502617 0.518087
9 2 0.490166 0.470224 0.503742
8 2 0.466714 0.484584 0.523825
48 2 0.480848 0.488857 0.499721
129 2 0.493953 0.486013 0.511229
118 2 0.478901 0.477697 0.513317
24 2 0.489268 0.482445 0.526642
99 2 0.50119 0.498089 0.502699
55 2 0.478841 0.496868 0.523936
95 2 0.497613 0.502342 0.517526
20 2 0.506794 0.474494 0.507431
56 2 0.521639 0.480981 0.512862
114 2 0.504192 0.485763 0.524733
141 2 0.527234 0.49293 0.525497
72 2 0.511851 0.494772 0.513319
44 1 0.533678 0.473706 0.503472
33 2 0.527743 0.493116 0.504376
112 1 0.539663 0.486644 0.514865
130 1 0.530318 0.472276 0.523579
79 1 0.45072 0.499142 0.516435
84 2 0.458265 0.517404 0.506589
90 2 0.472324 0.518002 0.513562
69 2 0.486424 0.527933 0.507489
54 2 0.485172 0.513085 0.520527
108 2 0.482553 0.501547 0.508088
40 2 0.494356 0.514154 0.504999
106 2 0.511498 0.503031 0.526461
91 2 0.500022 0.520833 0.518254
13 2 0.509078 0.510938 0.508049
32 2 0.5248 0.507253 0.511781
110 2 0.517857 0.519426 0.521446
103 2 0.518905 0.528799 0.506562
68 2 0.529401 0.508191 0.529529
140 1 0.543564 0.505496 0.518922
117 1 0.541958 0.50675 0.502767
85 2 0.533603 0.52074 0.513925
66 2 0.508108 0.541117 0.492238
43 1 0.47611 0.536966 0.515469
2 2 0.502307 0.530675 0.505456
138 1 0.49168 0.54498 0.507369
139 1 0.49386 0.537628 0.521247
18 1 0.525006 0.543187 0.497648
17 1 0.538237 0.534326 0.505017
47 1 0.527412 0.537034 0.519159
16 1 0.512995 0.544802 0.507801
75 1 0.509473 0.468725 0.524376
6 2 0.495983 0.496887 0.531627
27 1 0.493569 0.471591 0.537901
39 1 0.476734 0.480445 0.538544
86 1 0.487597 0.491733 0.544427
120 1 0.471976 0.496855 0.538661
42 1 0.519668 0.478304 0.532864
82 1 0.504257 0.484638 0.541902
127 1 0.519061 0.49745 0.539955
15 2 0.49893 0.512949 0.532408
96 2 0.485931 0.509021 0.539258
61 1 0.47064 0.513049 0.5303
131 2 0.485903 0.527227 0.529437
101 1 0.501487 0.529762 0.540301
124 1 0.503924 0.502589 0.543674
81 2 0.51274 0.51662 0.536421
63 1 0.510287 0.53515 0.521148
ITEM: TIMESTEP
7230000
ITEM: NUMBER OF ATOMS
141
ITEM: BOX BOUNDS pp pp pp
0.0000000000000000e+00 1.4356000000000000e+02
0.0000000000000000e+00 1.4356000000000000e+02
0.0000000000000000e+00 1.4356000000000000e+02
ITEM: ATOMS id type xs ys zs
28 1 0.481614 0.454109 0.487963
107 1 0.512125 0.479475 0.462793
19 1 0.49691 0.478714 0.458026
94 2 0.483958 0.476345 0.467955
77 1 0.489197 0.495967 0.452681
41 1 0.474198 0.489367 0.463105
123 1 0.52595 0.487246 0.457301
26 2 0.50818 0.494421 0.462746
10 2 0.535307 0.499797 0.465345
36 1 0.48241 0.507378 0.461577
105 1 0.492457 0.524034 0.461861
62 1 0.500148 0.508457 0.459904
1 1 0.47445 0.518439 0.470267
51 1 0.51899 0.506671 0.460624
80 1 0.51096 0.523614 0.467179
53 1 0.527002 0.520494 0.470775
100 1 0.503167 0.539609 0.468973
46 1 0.460097 0.468896 0.490801
89 1 0.488608 0.471158 0.484269
97 2 0.480021 0.466776 0.497905
29 1 0.500904 0.466515 0.470992
111 1 0.516153 0.458128 0.493902
104 2 0.516002 0.471704 0.477897
115 1 0.455988 0.483907 0.495117
34 2 0.466265 0.487594 0.47814
126 2 0.454629 0.498589 0.483119
57 2 0.472528 0.467918 0.478638
88 2 0.482709 0.488027 0.480265
102 2 0.491548 0.485793 0.49384
21 1 0.499465 0.481054 0.478098
4 2 0.47326 0.479852 0.492565
73 2 0.492638 0.494344 0.468771
125 2 0.471243 0.496538 0.489608
83 2 0.506182 0.469093 0.488773
35 2 0.500873 0.497044 0.482485
60 2 0.515996 0.48953 0.477961
3 2 0.510739 0.485066 0.493651
78 2 0.526632 0.475913 0.489746
132 2 0.526612 0.492469 0.489903
59 1 0.531725 0.48077 0.472335