ITEM: TIMESTEP
2250000
ITEM: NUMBER OF ATOMS
141
ITEM: BOX BOUNDS pp pp pp
0.0000000000000000e+00 1.4356000000000000e+02
0.0000000000000000e+00 1.4356000000000000e+02
0.0000000000000000e+00 1.4356000000000000e+02
ITEM: ATOMS id type xs ys zs
53 1 0.511828 0.460472 0.469532
56 2 0.470137 0.490751 0.466729
114 2 0.488573 0.481762 0.463935
44 1 0.485513 0.498642 0.461854
125 2 0.501578 0.491489 0.456184
127 1 0.50405 0.474081 0.464018
132 2 0.517884 0.488916 0.464846
99 2 0.483296 0.51632 0.461186
85 2 0.498906 0.506891 0.468925
111 1 0.495939 0.507039 0.451681
103 2 0.526891 0.502469 0.466664
70 1 0.511992 0.504452 0.458127
87 1 0.50262 0.520002 0.462297
60 2 0.518468 0.519525 0.470516
130 1 0.492238 0.464987 0.475023
119 1 0.483861 0.462648 0.489123
19 1 0.501352 0.45591 0.486023
113 1 0.521621 0.461611 0.484481
139 1 0.51212 0.458819 0.498473
75 1 0.468023 0.470897 0.488978
135 1 0.456746 0.484879 0.492947
100 1 0.458762 0.497891 0.480678
128 2 0.498467 0.471396 0.49679
29 1 0.475336 0.47447 0.473654
5 2 0.472475 0.485862 0.487225
57 2 0.483943 0.493408 0.477439
3 2 0.486331 0.492684 0.492944
67 2 0.489763 0.478609 0.483966
6 2 0.481933 0.476839 0.498142
74 1 0.523302 0.473151 0.471376
116 2 0.501336 0.489827 0.473353
107 1 0.506319 0.472815 0.480868
118 2 0.502419 0.487809 0.490094
91 2 0.51728 0.476303 0.493808
8 2 0.516845 0.486964 0.480916
131 2 0.528557 0.488681 0.496728
83 2 0.514444 0.499018 0.491384
36 1 0.533111 0.486662 0.471049
28 1 0.533177 0.474786 0.484342
50 1 0.544172 0.487962 0.484755
73 2 0.531553 0.499103 0.483427
18 1 0.5392 0.474576 0.49956
121 1 0.459363 0.516369 0.480914
33 2 0.456916 0.50308 0.497035
10 2 0.460273 0.521324 0.498031
54 2 0.471581 0.506332 0.470979
37 1 0.472047 0.523019 0.474715
68 2 0.475635 0.519847 0.490869
126 2 0.486377 0.512468 0.477731
84 2 0.475652 0.50467 0.487564
9 2 0.487967 0.511168 0.496942
90 2 0.493156 0.524842 0.490742
25 2 0.497594 0.501413 0.483796
65 1 0.48996 0.527703 0.47328
110 2 0.51345 0.502125 0.475676
55 2 0.504192 0.516928 0.481963
97 2 0.505066 0.514456 0.496633
106 2 0.52205 0.513562 0.486981
96 2 0.512712 0.527984 0.490376
77 1 0.52797 0.528034 0.481065
27 1 0.543803 0.505641 0.493525
21 1 0.539647 0.514887 0.47986
23 1 0.538468 0.52121 0.496955
98 1 0.462072 0.533233 0.485544
86 1 0.479742 0.534915 0.48633
133 2 0.490839 0.538191 0.498608
61 1 0.471088 0.53738 0.499466
32 2 0.49647 0.540708 0.48485
138 1 0.507735 0.53258 0.473686
46 1 0.518342 0.542557 0.48056
136 1 0.506824 0.543801 0.499394
1 1 0.526385 0.534232 0.49685
112 1 0.492637 0.455458 0.501192
38 1 0.474436 0.461489 0.504121
22 2 0.475308 0.469317 0.519751
80 1 0.489417 0.468662 0.510849
137 2 0.490186 0.46443 0.528899
31 1 0.502661 0.456834 0.515674
120 1 0.520345 0.461343 0.514899
13 2 0.506323 0.468577 0.525565
101 1 0.527235 0.464126 0.500048
122 2 0.46494 0.477566 0.505717
51 1 0.466996 0.484303 0.523559
30 1 0.457515 0.491462 0.509839
66 2 0.471863 0.493679 0.501073
81 2 0.495873 0.484313 0.504972
52 2 0.481112 0.484226 0.512613
123 1 0.496529 0.479896 0.520903
58 2 0.486244 0.49898 0.524686
93 2 0.498966 0.499195 0.50015
14 2 0.485235 0.498674 0.508662
35 2 0.501367 0.496598 0.516175
109 2 0.525066 0.477756 0.509199
141 2 0.508012 0.472113 0.510058
71 2 0.513536 0.48659 0.523394
92 2 0.512356 0.488779 0.504916
108 2 0.525351 0.494713 0.514138
59 1 0.534618 0.482865 0.521622
72 2 0.540645 0.49363 0.50753
134 1 0.540033 0.499334 0.524184
42 1 0.456807 0.501673 0.526278
117 1 0.455896 0.511191 0.512503
79 1 0.468205 0.525213 0.514009
129 2 0.469469 0.500277 0.516781
2 2 0.471713 0.509721 0.50326
48 2 0.483474 0.52503 0.50554
4 2 0.481253 0.514048 0.5174
64 2 0.497534 0.511941 0.510915
26 2 0.493473 0.527621 0.518511
7 2 0.481049 0.526825 0.528481
76 2 0.498684 0.51014 0.52646
102 2 0.528446 0.505539 0.500096
94 2 0.518849 0.519948 0.503328
69 2 0.514082 0.505777 0.526818
115 1 0.512722 0.50626 0.509095
34 2 0.510355 0.521437 0.518416
11 2 0.526252 0.512662 0.516149
88 2 0.50423 0.52807 0.504814
43 1 0.52503 0.52844 0.525104
63 1 0.542122 0.510741 0.510237
62 1 0.541591 0.518514 0.525674
20 2 0.534012 0.529357 0.511189
140 1 0.480822 0.540453 0.517185
82 1 0.500167 0.542762 0.515578
41 1 0.515857 0.53757 0.511714
124 1 0.508926 0.53637 0.528742
16 1 0.471785 0.497906 0.534181
104 2 0.482116 0.482302 0.530575
105 1 0.487153 0.493853 0.541261
15 2 0.498331 0.480548 0.538979
49 1 0.523018 0.474371 0.529942
24 2 0.524454 0.493858 0.531479
78 2 0.502469 0.494843 0.532443
89 1 0.514333 0.482744 0.539848
12 2 0.467226 0.515478 0.530306
45 1 0.481689 0.50969 0.536424
47 1 0.496276 0.524447 0.534876
17 1 0.498831 0.509087 0.54408
39 1 0.514833 0.501104 0.542512
95 2 0.511885 0.518982 0.53691
40 2 0.527565 0.511604 0.533764
ITEM: TIMESTEP
2255000
ITEM: NUMBER OF ATOMS
141
ITEM: BOX BOUNDS pp pp pp
0.0000000000000000e+00 1.4356000000000000e+02
0.0000000000000000e+00 1.4356000000000000e+02
0.0000000000000000e+00 1.4356000000000000e+02
ITEM: ATOMS id type xs ys zs
53 1 0.508122 0.458573 0.472569
56 2 0.472551 0.488641 0.468045
114 2 0.48743 0.480935 0.465379
44 1 0.484526 0.496939 0.459256
125 2 0.50101 0.489689 0.455886
127 1 0.505465 0.473162 0.460754
132 2 0.515955 0.486461 0.466894
74 1 0.521343 0.468504 0.473691
99 2 0.486053 0.514555 0.461815
111 1 0.498253 0.506266 0.450621
54 2 0.475866 0.506541 0.470337
85 2 0.497806 0.505242 0.469571
103 2 0.526437 0.500638 0.465343
70 1 0.511969 0.507726 0.459183
87 1 0.502078 0.51931 0.45969
60 2 0.520834 0.517157 0.469373
75 1 0.465574 0.473479 0.490723
130 1 0.493472 0.464513 0.472373
119 1 0.483749 0.46293 0.488525
128 2 0.497968 0.471594 0.494763
112 1 0.494656 0.454092 0.50215
19 1 0.502803 0.456919 0.487684
113 1 0.518439 0.458142 0.488407
135 1 0.456391 0.490201 0.49028
100 1 0.460184 0.500703 0.476549
5 2 0.472773 0.488064 0.48558
29 1 0.475459 0.472099 0.475602
57 2 0.485065 0.49632 0.476774
3 2 0.487148 0.493575 0.493079
67 2 0.487575 0.479745 0.482406
6 2 0.481253 0.47709 0.496868
116 2 0.500024 0.489456 0.473186
107 1 0.506394 0.472769 0.478633
118 2 0.50292 0.487045 0.489518
91 2 0.515756 0.47562 0.494511
8 2 0.520644 0.48675 0.483116
131 2 0.526593 0.488867 0.499341
83 2 0.514909 0.501123 0.491996
36 1 0.534079 0.484232 0.473109
28 1 0.531864 0.474653 0.48595
50 1 0.544271 0.490582 0.488312
121 1 0.459949 0.516703 0.482601
33 2 0.459703 0.505853 0.496114
10 2 0.462012 0.522827 0.498557
37 1 0.473072 0.522141 0.472562
68 2 0.475109 0.520654 0.488643
126 2 0.486648 0.514833 0.480208
84 2 0.473584 0.504487 0.487503
9 2 0.488917 0.50967 0.496031
90 2 0.493763 0.524268 0.490578
73 2 0.531124 0.499835 0.481731
25 2 0.499733 0.503597 0.484659
110 2 0.513279 0.50078 0.476051
55 2 0.505838 0.51735 0.476204
97 2 0.505713 0.513657 0.495257
106 2 0.522226 0.514158 0.485755
96 2 0.512143 0.528902 0.489381
102 2 0.529071 0.505284 0.498064
27 1 0.543551 0.510894 0.490567
21 1 0.536047 0.514985 0.475773
23 1 0.535039 0.526629 0.490727
98 1 0.462452 0.532742 0.485832
65 1 0.490143 0.529424 0.470257
86 1 0.480264 0.536138 0.484358
32 2 0.498891 0.537036 0.484014
133 2 0.490035 0.53887 0.498997
138 1 0.510619 0.533261 0.471162
77 1 0.525039 0.530643 0.478838
46 1 0.51481 0.544458 0.480825
1 1 0.52403 0.536535 0.498627
136 1 0.507145 0.542675 0.497816
38 1 0.475371 0.462561 0.503741
22 2 0.474174 0.468407 0.520776
80 1 0.48889 0.469355 0.511773
101 1 0.528291 0.464011 0.500159
139 1 0.511662 0.460227 0.502063
31 1 0.502634 0.460286 0.516009
120 1 0.520762 0.459076 0.519233
13 2 0.508764 0.468537 0.526649
122 2 0.466456 0.480641 0.505616
51 1 0.464785 0.484171 0.523676
30 1 0.455516 0.493232 0.510199
42 1 0.454935 0.500698 0.527076
66 2 0.472406 0.494622 0.501544
81 2 0.493997 0.484755 0.504359
52 2 0.480384 0.484123 0.513747
123 1 0.495306 0.479906 0.521735
129 2 0.46993 0.499123 0.517795
14 2 0.486817 0.49989 0.50854
58 2 0.48476 0.495692 0.525739
93 2 0.500932 0.498997 0.501333
35 2 0.500555 0.494872 0.51686
109 2 0.525278 0.478207 0.51178
141 2 0.507477 0.474664 0.509311
71 2 0.513704 0.485374 0.523164
92 2 0.511261 0.48887 0.505983
108 2 0.524618 0.494116 0.514453
18 1 0.540279 0.477118 0.500692
59 1 0.539365 0.487444 0.519303
72 2 0.541875 0.498041 0.505109
117 1 0.459173 0.510993 0.512825
79 1 0.469253 0.525623 0.51374
12 2 0.467788 0.514445 0.527707
2 2 0.474751 0.511847 0.504032
48 2 0.485682 0.524111 0.508162
4 2 0.483044 0.512466 0.521065
64 2 0.497434 0.512711 0.511327
76 2 0.497326 0.509712 0.529027
7 2 0.480822 0.528823 0.527001
26 2 0.495898 0.52566 0.521661
94 2 0.521415 0.520907 0.501508
69 2 0.513532 0.502747 0.524924
115 1 0.512576 0.507642 0.508042
34 2 0.510534 0.519367 0.521815
11 2 0.525529 0.513143 0.516226
88 2 0.502081 0.527127 0.505178
43 1 0.523465 0.526695 0.530594
20 2 0.533124 0.529318 0.511172
134 1 0.53829 0.5039 0.520316
63 1 0.542677 0.515066 0.507546
62 1 0.5385 0.523732 0.526078
61 1 0.47318 0.536193 0.500173
140 1 0.481431 0.539771 0.513705
82 1 0.499465 0.540874 0.514413
41 1 0.515847 0.533787 0.513711
124 1 0.507741 0.533924 0.528836
137 2 0.489273 0.465551 0.528923
16 1 0.470191 0.499752 0.536461
104 2 0.478775 0.480001 0.531537
105 1 0.486236 0.492432 0.541975
49 1 0.526543 0.473845 0.528423
15 2 0.49726 0.478891 0.536821
24 2 0.52608 0.491853 0.531381
78 2 0.502668 0.494231 0.532493
89 1 0.514265 0.479637 0.541142
45 1 0.481772 0.510427 0.537487
47 1 0.495246 0.522794 0.53945
17 1 0.496662 0.50316 0.54563
39 1 0.513254 0.496524 0.545413
95 2 0.512387 0.513086 0.537624
40 2 0.527088 0.50792 0.531838
ITEM: TIMESTEP
2260000
ITEM: NUMBER OF ATOMS
141
ITEM: BOX BOUNDS pp pp pp
0.0000000000000000e+00 1.4356000000000000e+02
0.0000000000000000e+00 1.4356000000000000e+02
0.0000000000000000e+00 1.4356000000000000e+02
ITEM: ATOMS id type xs ys zs
53 1 0.506648 0.458904 0.469988
114 2 0.488299 0.480319 0.466159
44 1 0.48843 0.498949 0.458794
56 2 0.472587 0.489079 0.467018
125 2 0.502523 0.491354 0.455672
127 1 0.505309 0.474652 0.462186
132 2 0.517115 0.488439 0.465879
74 1 0.520481 0.471037 0.470894
99 2 0.485338 0.515191 0.462912
54 2 0.474187 0.506293 0.470171
111 1 0.499277 0.510983 0.452558
85 2 0.500141 0.506264 0.469254
70 1 0.515483 0.503797 0.457665
87 1 0.506804 0.524317 0.460752
60 2 0.520329 0.516378 0.469067
103 2 0.530118 0.501641 0.468011
130 1 0.489289 0.465379 0.472954
119 1 0.480709 0.460505 0.488973
112 1 0.489953 0.452559 0.501364
19 1 0.496601 0.456172 0.485395
113 1 0.517083 0.460963 0.485392
75 1 0.464924 0.470118 0.49292
135 1 0.45711 0.485827 0.49418
100 1 0.461092 0.493241 0.479396
128 2 0.496484 0.470562 0.494669
5 2 0.474052 0.485486 0.484085
29 1 0.473282 0.472937 0.475842
57 2 0.486146 0.494959 0.476789
3 2 0.486894 0.491698 0.49396
67 2 0.487651 0.47933 0.482523
6 2 0.481143 0.476688 0.497205
116 2 0.50125 0.489286 0.47243
107 1 0.505397 0.475197 0.479063
118 2 0.502788 0.486237 0.490004
91 2 0.514028 0.474073 0.495524
8 2 0.517023 0.486149 0.480879
131 2 0.524693 0.486974 0.495534
73 2 0.530096 0.499639 0.484619
36 1 0.531493 0.484918 0.471732
28 1 0.52824 0.474548 0.484109
50 1 0.541903 0.48985 0.489791
121 1 0.462723 0.512685 0.480548
33 2 0.459521 0.503907 0.494957
10 2 0.46202 0.520422 0.496125
37 1 0.475483 0.52509 0.472866
68 2 0.477118 0.519292 0.490969
126 2 0.487793 0.513249 0.478858
84 2 0.475629 0.502353 0.487935
9 2 0.488652 0.50938 0.495672
90 2 0.492828 0.525259 0.488959
25 2 0.50078 0.500858 0.485096
65 1 0.4916 0.52995 0.470144
83 2 0.51544 0.499611 0.493248
110 2 0.515323 0.501987 0.475961
55 2 0.504337 0.518366 0.47823
97 2 0.505455 0.514291 0.49602
106 2 0.519265 0.514975 0.485215
27 1 0.543293 0.506773 0.492516
21 1 0.536155 0.515297 0.479052
23 1 0.535344 0.524459 0.492381
98 1 0.462795 0.532101 0.483476
86 1 0.479597 0.537113 0.484132
32 2 0.498645 0.540059 0.48325
133 2 0.489222 0.54031 0.498203
61 1 0.473635 0.532283 0.500626
138 1 0.510478 0.534079 0.47287
96 2 0.510359 0.530254 0.492267
77 1 0.526631 0.529074 0.47992
46 1 0.514284 0.546222 0.482915
1 1 0.523919 0.538994 0.496856
136 1 0.50505 0.544329 0.499807
38 1 0.473427 0.461913 0.504909
80 1 0.487759 0.467472 0.511243
137 2 0.489658 0.467489 0.527807
22 2 0.47285 0.47025 0.521809
139 1 0.509061 0.457422 0.49881
31 1 0.501179 0.458247 0.517027
120 1 0.521266 0.460698 0.513369
101 1 0.528645 0.46411 0.499321
13 2 0.50703 0.469909 0.528187
122 2 0.4651 0.476309 0.508119
51 1 0.466142 0.485962 0.522559
30 1 0.455094 0.491677 0.510992
129 2 0.470938 0.501223 0.516693
66 2 0.47149 0.491234 0.502085
81 2 0.495901 0.482052 0.50619
52 2 0.47984 0.482258 0.513942
123 1 0.497328 0.481519 0.521278
58 2 0.487465 0.496744 0.524786
14 2 0.484483 0.498866 0.507351
93 2 0.500301 0.499402 0.501621
35 2 0.501388 0.497046 0.517111
109 2 0.524943 0.477932 0.512807
141 2 0.508226 0.47148 0.510639
71 2 0.514415 0.48615 0.523589
92 2 0.513461 0.488298 0.50737
108 2 0.525897 0.496329 0.516535
49 1 0.524827 0.472494 0.529227
18 1 0.538559 0.478904 0.50365
59 1 0.539015 0.485758 0.51886
72 2 0.536134 0.497076 0.504931
117 1 0.458197 0.512318 0.51352
79 1 0.469184 0.524425 0.51661
2 2 0.474156 0.51249 0.504636
48 2 0.486182 0.522847 0.506025
4 2 0.482628 0.51264 0.520191
64 2 0.498806 0.511937 0.50996
76 2 0.499453 0.510261 0.526362
26 2 0.493119 0.526439 0.520846
102 2 0.526958 0.509814 0.500366
94 2 0.519021 0.523153 0.503045
69 2 0.515132 0.504564 0.526229
115 1 0.513795 0.506906 0.50877
34 2 0.511358 0.521398 0.518697
11 2 0.526952 0.514263 0.518621
88 2 0.502303 0.528388 0.506244
43 1 0.524647 0.527983 0.527329
134 1 0.540736 0.502758 0.521298
20 2 0.532167 0.530709 0.510645
63 1 0.542027 0.51491 0.50865
62 1 0.542071 0.519468 0.525476
140 1 0.481393 0.537494 0.514696
82 1 0.496293 0.542998 0.513631
41 1 0.515922 0.537803 0.511996
42 1 0.457494 0.500674 0.524829
16 1 0.470866 0.496405 0.534719
104 2 0.481596 0.482282 0.529713
105 1 0.486899 0.495064 0.541272
15 2 0.498092 0.481125 0.537041
24 2 0.529281 0.487716 0.532393
78 2 0.50416 0.49485 0.534594
89 1 0.514991 0.480785 0.538901
39 1 0.517393 0.497441 0.540672
12 2 0.469025 0.513972 0.528504
7 2 0.479398 0.526905 0.53039
45 1 0.482791 0.511759 0.53713
47 1 0.495352 0.523948 0.538418
17 1 0.499268 0.507658 0.544926
95 2 0.51275 0.518032 0.53617
40 2 0.529776 0.5075 0.534059
124 1 0.506351 0.535833 0.526615
ITEM: TIMESTEP
2265000
ITEM: NUMBER OF ATOMS
141
ITEM: BOX BOUNDS pp pp pp
0.0000000000000000e+00 1.4356000000000000e+02
0.0000000000000000e+00 1.4356000000000000e+02
0.0000000000000000e+00 1.4356000000000000e+02
ITEM: ATOMS id type xs ys zs
53 1 0.511243 0.46156 0.466509
114 2 0.487105 0.481332 0.466083
44 1 0.482845 0.495429 0.457582
56 2 0.469798 0.489021 0.468406
125 2 0.500042 0.493531 0.456808
127 1 0.504358 0.477796 0.464018
132 2 0.517296 0.490656 0.46454
99 2 0.483895 0.512861 0.461318
111 1 0.495608 0.507918 0.451114
85 2 0.498644 0.50525 0.468026
54 2 0.472974 0.505549 0.472022
70 1 0.511311 0.50543 0.455124
87 1 0.506506 0.520932 0.46116
103 2 0.529518 0.50153 0.467679
65 1 0.492719 0.527619 0.471557
130 1 0.491999 0.464751 0.468259
119 1 0.481308 0.461912 0.488746
19 1 0.497334 0.454677 0.483311
113 1 0.520267 0.465828 0.481542
139 1 0.509646 0.457975 0.494144
101 1 0.528518 0.466459 0.498218
75 1 0.466501 0.47341 0.48789
135 1 0.457677 0.485912 0.494574
100 1 0.459527 0.497912 0.479429
128 2 0.495442 0.470846 0.495718
5 2 0.473639 0.487371 0.484139
29 1 0.476308 0.471125 0.473799
3 2 0.487347 0.491987 0.493545
67 2 0.490201 0.479739 0.481353
6 2 0.480387 0.477238 0.497096
74 1 0.522963 0.475538 0.46877
116 2 0.501417 0.489966 0.475674
107 1 0.504376 0.471004 0.480245
118 2 0.503956 0.486391 0.489998
91 2 0.51415 0.475607 0.494372
8 2 0.517571 0.486675 0.481066
131 2 0.52448 0.488693 0.499609
83 2 0.513925 0.499092 0.492523
28 1 0.531228 0.477364 0.486408
36 1 0.533148 0.487625 0.473112
50 1 0.541903 0.490486 0.490144
121 1 0.461512 0.515842 0.481259
33 2 0.45794 0.503567 0.495635
10 2 0.463242 0.518645 0.497323
57 2 0.485655 0.495921 0.476254
37 1 0.475057 0.524428 0.471933
68 2 0.477706 0.519977 0.489453
126 2 0.487056 0.511731 0.478499
84 2 0.473989 0.504828 0.488391
9 2 0.48938 0.509729 0.494789
90 2 0.495029 0.523745 0.487774
60 2 0.520757 0.517178 0.469395
25 2 0.499013 0.503438 0.484263
110 2 0.515362 0.502238 0.476224
55 2 0.505417 0.516804 0.476219
97 2 0.506592 0.514101 0.496409
106 2 0.520937 0.514075 0.486858
77 1 0.528742 0.531472 0.481062
73 2 0.531068 0.501871 0.486024
27 1 0.547097 0.506245 0.491614
21 1 0.537693 0.514153 0.47804
23 1 0.537482 0.521283 0.495447
98 1 0.46669 0.532041 0.485934
61 1 0.472042 0.533105 0.502352
86 1 0.481814 0.536236 0.484967
32 2 0.500566 0.539139 0.483662
133 2 0.489258 0.53809 0.499235
138 1 0.511901 0.532037 0.473103
96 2 0.510844 0.527557 0.490013
46 1 0.519474 0.54374 0.483106
1 1 0.526089 0.534638 0.497068
136 1 0.508948 0.544358 0.497544
112 1 0.493032 0.454286 0.499943
38 1 0.473662 0.463186 0.506845
80 1 0.487817 0.470046 0.514274
22 2 0.473537 0.469391 0.521933
137 2 0.48832 0.467735 0.530949
31 1 0.50081 0.456629 0.516809
120 1 0.519827 0.461627 0.514029
13 2 0.507108 0.470612 0.527128
122 2 0.466198 0.478397 0.507328
51 1 0.465132 0.483119 0.526013
30 1 0.456949 0.492371 0.510896
66 2 0.470741 0.493252 0.501857
81 2 0.493983 0.483616 0.505157
52 2 0.479212 0.483915 0.514088
123 1 0.495682 0.482003 0.523493
58 2 0.486875 0.497618 0.52829
14 2 0.4855 0.498768 0.509299
93 2 0.499691 0.498141 0.50031
35 2 0.500613 0.496368 0.517142
129 2 0.47241 0.496851 0.519748
141 2 0.50459 0.472111 0.510083
109 2 0.524541 0.476832 0.510642
71 2 0.5126 0.486161 0.522877
92 2 0.50965 0.487324 0.505836
108 2 0.524537 0.495258 0.515145
18 1 0.539597 0.479162 0.502413
59 1 0.537572 0.485167 0.52328
72 2 0.539464 0.494883 0.507259
134 1 0.537817 0.502831 0.522471
42 1 0.456381 0.499035 0.524971
117 1 0.459755 0.507605 0.511916
79 1 0.467097 0.524522 0.514893
12 2 0.468048 0.513033 0.529024
2 2 0.474854 0.510093 0.504038
48 2 0.485252 0.52376 0.506144
4 2 0.481952 0.510696 0.520144
64 2 0.49678 0.511118 0.509199
76 2 0.496205 0.511294 0.526938
26 2 0.495347 0.526244 0.519525
7 2 0.479525 0.525802 0.52685
69 2 0.512382 0.502435 0.526492
94 2 0.519883 0.521506 0.505586
115 1 0.513918 0.506115 0.508285
34 2 0.509337 0.519517 0.518265
11 2 0.525466 0.512434 0.516104
43 1 0.523341 0.525956 0.525979
102 2 0.528501 0.50701 0.501241
63 1 0.544393 0.51208 0.507304
62 1 0.538595 0.518657 0.526966
20 2 0.53335 0.52708 0.511131
140 1 0.482548 0.538922 0.514931
88 2 0.503098 0.52868 0.504527
82 1 0.498886 0.541413 0.516556
41 1 0.516899 0.537477 0.509859
124 1 0.509683 0.535232 0.526929
16 1 0.467783 0.49822 0.536916
104 2 0.479581 0.483031 0.532787
105 1 0.488574 0.495083 0.544162
15 2 0.498192 0.478802 0.539819
49 1 0.525016 0.474304 0.526935
24 2 0.526597 0.495793 0.531856
78 2 0.502463 0.492982 0.536412
89 1 0.515438 0.480066 0.538878
45 1 0.483283 0.512367 0.537329
47 1 0.494496 0.525471 0.536692
17 1 0.500527 0.509257 0.54519
39 1 0.514887 0.50187 0.544725
95 2 0.509615 0.518508 0.533743
40 2 0.524043 0.512186 0.532449
ITEM: TIMESTEP
2270000
ITEM: NUMBER OF ATOMS
141
ITEM: BOX BOUNDS pp pp pp
0.0000000000000000e+00 1.4356000000000000e+02
0.0000000000000000e+00 1.4356000000000000e+02
0.0000000000000000e+00 1.4356000000000000e+02
ITEM: ATOMS id type xs ys zs
53 1 0.510736 0.457877 0.470299
56 2 0.473907 0.489929 0.466448
114 2 0.48823 0.481718 0.464127
44 1 0.486564 0.500838 0.458022
125 2 0.501595 0.493123 0.458692
127 1 0.504236 0.475972 0.462999
132 2 0.51745 0.487795 0.463247
99 2 0.485135 0.516905 0.460831
111 1 0.49763 0.509351 0.449004
85 2 0.497864 0.506292 0.46865
70 1 0.513178 0.504988 0.458461
87 1 0.504048 0.522153 0.461481
60 2 0.517344 0.519084 0.47007
103 2 0.528836 0.50377 0.464978
75 1 0.464539 0.470873 0.486863
130 1 0.491608 0.464335 0.470102
119 1 0.482777 0.462446 0.485697
19 1 0.500131 0.45328 0.486846
113 1 0.517656 0.458601 0.487415
139 1 0.509664 0.4548 0.503773
135 1 0.457605 0.486796 0.49409
100 1 0.461785 0.494323 0.480062
128 2 0.499935 0.468881 0.494298
29 1 0.475297 0.472587 0.474801
5 2 0.475203 0.487385 0.484276
3 2 0.488793 0.492761 0.492402
67 2 0.490426 0.477616 0.481408
6 2 0.481263 0.475618 0.496565
57 2 0.486221 0.495549 0.476331
107 1 0.505652 0.47157 0.478861
74 1 0.520736 0.472665 0.472952
116 2 0.50346 0.488965 0.475022
118 2 0.504331 0.485891 0.491864
91 2 0.515776 0.474554 0.4937
8 2 0.518339 0.487849 0.481849
131 2 0.525554 0.489092 0.497449
83 2 0.513411 0.500422 0.493166
28 1 0.529492 0.476061 0.486711
36 1 0.532346 0.486408 0.47101
50 1 0.540915 0.488511 0.486051
121 1 0.459877 0.512892 0.478988
33 2 0.460179 0.503063 0.496216
10 2 0.461926 0.520939 0.497609
54 2 0.473469 0.505535 0.470551
65 1 0.491863 0.53069 0.469873
37 1 0.474253 0.525369 0.470831
68 2 0.477281 0.52077 0.490068
126 2 0.485849 0.513395 0.478469
84 2 0.475896 0.50398 0.486895
9 2 0.488025 0.510481 0.49645
90 2 0.494105 0.524515 0.490009
25 2 0.499266 0.504235 0.485195
110 2 0.513328 0.503404 0.475368
55 2 0.502151 0.520151 0.476937
97 2 0.505028 0.515482 0.496558
106 2 0.5208 0.514879 0.487228
96 2 0.511968 0.528537 0.489021
94 2 0.517385 0.520747 0.504323
73 2 0.529254 0.500123 0.482195
102 2 0.528453 0.505625 0.499197
27 1 0.54337 0.507326 0.490389
21 1 0.535081 0.514218 0.476779
23 1 0.534492 0.521285 0.494149
98 1 0.463621 0.530449 0.483687
86 1 0.480511 0.536922 0.483154
32 2 0.498407 0.538067 0.484592
61 1 0.469171 0.53757 0.49903
77 1 0.525729 0.530719 0.480629
138 1 0.510671 0.536863 0.472047
46 1 0.516372 0.54477 0.484641
1 1 0.522255 0.537339 0.498159
136 1 0.507037 0.544078 0.499025
112 1 0.491468 0.455022 0.501268
38 1 0.475378 0.46028 0.50019
80 1 0.486642 0.468939 0.510304
137 2 0.488659 0.467781 0.526761
22 2 0.471751 0.465731 0.520676
31 1 0.499974 0.456099 0.516872
120 1 0.517919 0.462152 0.518695
101 1 0.525456 0.462346 0.503395
122 2 0.4659 0.475059 0.505231
51 1 0.46307 0.483774 0.524357
30 1 0.45924 0.492414 0.510143
129 2 0.471884 0.499104 0.517688
66 2 0.473304 0.492573 0.49952
81 2 0.493813 0.483349 0.504232
52 2 0.477872 0.482843 0.514253
123 1 0.495102 0.483182 0.521216
58 2 0.488102 0.496571 0.527948
14 2 0.487047 0.49869 0.510608
93 2 0.500321 0.499424 0.501627
13 2 0.506411 0.472517 0.528472
35 2 0.501869 0.498229 0.519402
141 2 0.506389 0.472099 0.510597
109 2 0.522633 0.477158 0.511194
71 2 0.513521 0.486713 0.522943
92 2 0.510388 0.487452 0.506695
108 2 0.526278 0.494271 0.512168
18 1 0.535915 0.477277 0.501947
59 1 0.537448 0.482762 0.520734
72 2 0.540764 0.494385 0.503864
42 1 0.458553 0.499235 0.527068
117 1 0.458677 0.510506 0.514403
12 2 0.469041 0.513478 0.528731
79 1 0.468225 0.527016 0.513936
2 2 0.472313 0.509567 0.50493
48 2 0.482867 0.523861 0.50578
4 2 0.481393 0.512565 0.518686
64 2 0.498025 0.514064 0.511821
76 2 0.49964 0.511085 0.528212
26 2 0.494898 0.526836 0.5232
69 2 0.51653 0.503378 0.526488
115 1 0.514823 0.505042 0.509416
34 2 0.510562 0.518177 0.520492
11 2 0.528345 0.512454 0.516171
43 1 0.52604 0.526101 0.525109
88 2 0.499749 0.529807 0.504483
134 1 0.538816 0.498951 0.52416
20 2 0.532045 0.528524 0.509699
63 1 0.542748 0.512387 0.507561
62 1 0.542266 0.519544 0.523502
133 2 0.488096 0.538379 0.498778
140 1 0.479827 0.540496 0.513596
82 1 0.496518 0.544168 0.514214
41 1 0.514919 0.535028 0.513522
16 1 0.473562 0.498079 0.534611
104 2 0.479677 0.48037 0.53171
105 1 0.490994 0.498052 0.545207
15 2 0.494715 0.480428 0.538012
49 1 0.524953 0.474168 0.529538
78 2 0.504878 0.494001 0.534939
24 2 0.52681 0.491522 0.534248
89 1 0.515159 0.481961 0.542683
7 2 0.479758 0.526039 0.526303
45 1 0.485251 0.513158 0.535801
47 1 0.498743 0.526675 0.540035
17 1 0.502979 0.511327 0.546932
39 1 0.516843 0.502169 0.544233
95 2 0.515021 0.517326 0.536748
40 2 0.529305 0.510128 0.534368
124 1 0.509934 0.531831 0.530186
ITEM: TIMESTEP
2275000
ITEM: NUMBER OF ATOMS
141
ITEM: BOX BOUNDS pp pp pp
0.0000000000000000e+00 1.4356000000000000e+02
0.0000000000000000e+00 1.4356000000000000e+02
0.0000000000000000e+00 1.4356000000000000e+02
ITEM: ATOMS id type xs ys zs
53 1 0.509434 0.459846 0.470852
56 2 0.471695 0.489437 0.467334
114 2 0.4878 0.481146 0.466002
44 1 0.483192 0.500312 0.458812
125 2 0.49992 0.494217 0.460421
127 1 0.504118 0.475518 0.464553
132 2 0.51606 0.486663 0.465664
99 2 0.486514 0.516613 0.461288
111 1 0.499636 0.511228 0.451062
54 2 0.473486 0.505831 0.469619
85 2 0.497717 0.508134 0.467652
70 1 0.51547 0.506696 0.456932
87 1 0.506296 0.523305 0.463258
103 2 0.526575 0.500459 0.468419
60 2 0.519556 0.518094 0.471889
75 1 0.469342 0.469828 0.489862
130 1 0.491715 0.463306 0.472738
119 1 0.484561 0.461853 0.487828
128 2 0.497152 0.470762 0.496722
19 1 0.50019 0.456948 0.486278
113 1 0.515857 0.459531 0.486396
135 1 0.457061 0.481933 0.493664
100 1 0.460608 0.497886 0.479499
29 1 0.475952 0.472385 0.473157
5 2 0.472479 0.486068 0.484447
3 2 0.487558 0.493209 0.492278
67 2 0.487942 0.479026 0.483592
6 2 0.481251 0.478301 0.498841
57 2 0.485162 0.493775 0.476456
66 2 0.472136 0.492436 0.500434
74 1 0.521124 0.470923 0.47155
107 1 0.504934 0.472233 0.480599
116 2 0.500834 0.487525 0.475574
118 2 0.501914 0.487061 0.491311
91 2 0.514404 0.474678 0.497029
8 2 0.517787 0.484573 0.483044
131 2 0.526141 0.489073 0.497446
83 2 0.514164 0.49859 0.49097
73 2 0.528789 0.50035 0.48459
36 1 0.531784 0.486149 0.474044
28 1 0.529944 0.472817 0.490508
50 1 0.541036 0.488667 0.488062
121 1 0.462791 0.514992 0.47879
33 2 0.458244 0.501785 0.49547
10 2 0.461819 0.518341 0.496324
37 1 0.474196 0.527529 0.469036
68 2 0.477279 0.523081 0.489917
126 2 0.485727 0.514815 0.477651
84 2 0.474133 0.50417 0.486805
9 2 0.486189 0.510729 0.495026
90 2 0.494426 0.52437 0.488526
25 2 0.496782 0.503699 0.483433
110 2 0.511712 0.49999 0.475237
55 2 0.50469 0.516967 0.479038
97 2 0.504809 0.515328 0.496918
106 2 0.519701 0.514479 0.487193
102 2 0.529752 0.506737 0.49989
27 1 0.544409 0.505962 0.492265
21 1 0.535504 0.514474 0.478589
23 1 0.535438 0.522686 0.493968
98 1 0.464077 0.531339 0.483147
65 1 0.493519 0.527806 0.471991
86 1 0.481614 0.53884 0.481567
32 2 0.499602 0.541385 0.486124
133 2 0.489062 0.540387 0.499414
96 2 0.509523 0.531276 0.491671
77 1 0.527439 0.530026 0.479172
138 1 0.511663 0.535979 0.474279
46 1 0.521251 0.547172 0.484434
1 1 0.526215 0.536121 0.495838
136 1 0.511889 0.544822 0.500155
112 1 0.489223 0.454326 0.504074
38 1 0.472806 0.460132 0.505213
80 1 0.489506 0.470724 0.51113
31 1 0.500328 0.456718 0.515801
22 2 0.474212 0.470361 0.51891
101 1 0.527573 0.463641 0.502826
139 1 0.508324 0.459486 0.500748
120 1 0.516365 0.460041 0.51342
13 2 0.508876 0.469442 0.526018
122 2 0.467007 0.476179 0.506002
51 1 0.464528 0.484087 0.524179
30 1 0.457916 0.494427 0.510506
42 1 0.453528 0.502679 0.528511
129 2 0.472262 0.499563 0.518169
81 2 0.49599 0.485514 0.505728
52 2 0.479306 0.485479 0.514769
123 1 0.496126 0.481957 0.522323
58 2 0.48814 0.497389 0.528149
35 2 0.501982 0.49835 0.516555
141 2 0.506347 0.47515 0.510903
109 2 0.52348 0.477786 0.51116
71 2 0.51357 0.48754 0.522755
92 2 0.511319 0.489527 0.505128
108 2 0.525944 0.495783 0.515053
49 1 0.526879 0.473721 0.526502
18 1 0.54103 0.477321 0.501136
72 2 0.540949 0.494971 0.504668
59 1 0.538811 0.482365 0.51822
117 1 0.455947 0.510493 0.512183
12 2 0.467953 0.511918 0.527152
79 1 0.467922 0.524134 0.512204
14 2 0.486103 0.499139 0.508803
93 2 0.500504 0.500501 0.5002
2 2 0.472121 0.508542 0.50467
48 2 0.484464 0.525856 0.50473
4 2 0.483272 0.512864 0.519821
64 2 0.496042 0.513733 0.509061
26 2 0.493609 0.527505 0.520909
76 2 0.497903 0.510616 0.525766
7 2 0.476889 0.524903 0.527908
94 2 0.519415 0.52089 0.503416
69 2 0.514355 0.503756 0.525149
115 1 0.514556 0.506952 0.508148
34 2 0.51072 0.519906 0.518005
11 2 0.528479 0.512712 0.5168
88 2 0.501702 0.529024 0.505389
134 1 0.541987 0.504382 0.520925
63 1 0.544125 0.514919 0.506635
62 1 0.542275 0.521208 0.525942
20 2 0.532732 0.527742 0.510055
61 1 0.471738 0.537109 0.498911
140 1 0.48031 0.537796 0.516386
82 1 0.499002 0.543511 0.515925
41 1 0.516718 0.53581 0.512749
137 2 0.490402 0.46654 0.526231
16 1 0.472479 0.497135 0.534872
104 2 0.481496 0.479378 0.532636
105 1 0.489047 0.489882 0.544115
15 2 0.497501 0.476381 0.538367
78 2 0.504354 0.493309 0.532484
89 1 0.514757 0.479493 0.539337
39 1 0.514548 0.500463 0.542495
24 2 0.526345 0.491131 0.53037
45 1 0.481243 0.512303 0.538068
47 1 0.495831 0.523396 0.536398
43 1 0.524969 0.525314 0.529725
17 1 0.496543 0.505244 0.542128
95 2 0.511485 0.515651 0.534491
40 2 0.527976 0.507536 0.532661
124 1 0.508286 0.531955 0.528232
ITEM: TIMESTEP
2280000
ITEM: NUMBER OF ATOMS
141
ITEM: BOX BOUNDS pp pp pp
0.0000000000000000e+00 1.4356000000000000e+02
0.0000000000000000e+00 1.4356000000000000e+02
0.0000000000000000e+00 1.4356000000000000e+02
ITEM: ATOMS id type xs ys zs
56 2 0.473064 0.490335 0.465078
114 2 0.487719 0.481991 0.464686
44 1 0.485947 0.497144 0.457214
74 1 0.520416 0.474255 0.470789
125 2 0.502801 0.491934 0.458308
127 1 0.501531 0.474075 0.463854
132 2 0.519 0.491747 0.465994
99 2 0.483959 0.513914 0.461325
111 1 0.497773 0.508691 0.450494
54 2 0.471348 0.506567 0.470366
85 2 0.498997 0.50559 0.467478
70 1 0.514088 0.510573 0.45708
87 1 0.498945 0.521701 0.462884
60 2 0.520136 0.520016 0.471621
103 2 0.529435 0.506244 0.465945
130 1 0.49281 0.464245 0.473098
119 1 0.482947 0.463088 0.485296
53 1 0.511289 0.459431 0.471032
19 1 0.499767 0.457397 0.486966
113 1 0.516822 0.460794 0.487216
75 1 0.46687 0.470845 0.48895
135 1 0.45699 0.485175 0.492311
100 1 0.459736 0.49845 0.478864
128 2 0.495267 0.471036 0.495819
29 1 0.476974 0.474939 0.475164
5 2 0.471945 0.487633 0.484418
3 2 0.484374 0.494324 0.492626
67 2 0.489319 0.481266 0.481572
6 2 0.480925 0.47799 0.496405
57 2 0.485954 0.494788 0.474425
116 2 0.503203 0.487819 0.474367
107 1 0.505802 0.471476 0.479566
118 2 0.501745 0.485461 0.492061
91 2 0.512459 0.474395 0.49444
8 2 0.518215 0.485961 0.481756
131 2 0.525849 0.487573 0.49673
83 2 0.513394 0.498902 0.491859
28 1 0.529551 0.474183 0.486215
36 1 0.535945 0.486927 0.471453
50 1 0.540204 0.48969 0.487787
73 2 0.528692 0.500139 0.482865