ITEM: TIMESTEP
7750000
ITEM: NUMBER OF ATOMS
141
ITEM: BOX BOUNDS pp pp pp
0.0000000000000000e+00 1.4356000000000000e+02
0.0000000000000000e+00 1.4356000000000000e+02
0.0000000000000000e+00 1.4356000000000000e+02
ITEM: ATOMS id type xs ys zs
90 2 0.468342 0.494964 0.466868
101 1 0.480139 0.47762 0.459724
17 1 0.494231 0.47948 0.467072
51 1 0.482935 0.49111 0.449608
114 2 0.484665 0.497504 0.464233
16 1 0.500351 0.489168 0.454434
75 1 0.507804 0.472899 0.465056
37 1 0.515833 0.49671 0.452605
73 2 0.511746 0.489186 0.467783
86 1 0.496628 0.504223 0.449373
98 1 0.474648 0.511739 0.46909
18 1 0.48433 0.513867 0.452418
9 2 0.48355 0.527378 0.465288
65 1 0.497572 0.521255 0.459644
102 2 0.511859 0.513287 0.45376
45 1 0.512509 0.524147 0.467425
25 2 0.519941 0.506764 0.467447
14 2 0.504031 0.503258 0.464546
97 2 0.497622 0.536627 0.468668
117 1 0.477099 0.461991 0.488849
63 1 0.496467 0.457846 0.490243
121 1 0.480066 0.466385 0.470952
38 1 0.501875 0.464464 0.477545
23 1 0.51304 0.465669 0.489122
107 1 0.464217 0.478131 0.477874
134 1 0.466466 0.493775 0.482822
94 2 0.46206 0.487937 0.497005
20 2 0.473873 0.498356 0.497448
132 2 0.480812 0.486207 0.475645
69 2 0.475283 0.478921 0.490913
32 2 0.487812 0.490493 0.491154
67 2 0.486729 0.471836 0.499724
5 2 0.490543 0.474611 0.484436
52 2 0.496849 0.494819 0.477152
118 2 0.527955 0.494233 0.471352
113 1 0.52935 0.473457 0.490823
55 2 0.505112 0.481176 0.481813
15 2 0.50419 0.494271 0.49535
106 2 0.5161 0.482893 0.493442
92 2 0.52127 0.479926 0.476992
139 1 0.516305 0.496359 0.481653
6 2 0.532387 0.4894 0.488127
61 1 0.5442 0.479916 0.49497
124 1 0.460217 0.507752 0.475379
127 1 0.456574 0.50454 0.495418
133 2 0.469565 0.511649 0.488505
49 1 0.469974 0.523483 0.476683
56 2 0.491756 0.51102 0.472941
91 2 0.480478 0.501672 0.481976
8 2 0.494271 0.50675 0.491079
48 2 0.485372 0.521447 0.485717
34 2 0.495878 0.520203 0.498663
104 2 0.522249 0.501338 0.497072
24 2 0.50608 0.508803 0.479682
108 2 0.509869 0.511834 0.496593
10 2 0.516344 0.52482 0.486622
3 2 0.52926 0.521926 0.475074
131 2 0.524671 0.509814 0.483918
57 2 0.501096 0.524739 0.480147
71 2 0.538656 0.50951 0.491583
53 1 0.540746 0.501079 0.478871
26 2 0.531863 0.525554 0.491328
81 2 0.470943 0.529446 0.492755
12 2 0.488663 0.53482 0.495329
70 1 0.483878 0.538009 0.47949
50 1 0.498522 0.544928 0.484479
59 1 0.523547 0.540293 0.493349
21 1 0.513361 0.538225 0.477039
84 2 0.506891 0.533793 0.493887
43 1 0.479538 0.457588 0.505776
11 2 0.495583 0.462957 0.509948
30 1 0.484347 0.462375 0.521472
31 1 0.471088 0.470141 0.509108
28 1 0.510182 0.457055 0.505868
111 1 0.520756 0.461044 0.518865
41 1 0.533218 0.468134 0.508404
119 1 0.536302 0.46927 0.524368
39 1 0.460987 0.484909 0.512538
123 1 0.456434 0.499287 0.525619
60 2 0.494136 0.489261 0.506418
126 2 0.471439 0.478387 0.523346
76 2 0.47746 0.48503 0.506681
93 2 0.473141 0.497164 0.522441
2 2 0.489028 0.47659 0.516907
99 2 0.484084 0.499701 0.511741
66 2 0.485774 0.489424 0.525253
22 2 0.502806 0.475737 0.500005
122 2 0.505858 0.473693 0.516764
13 2 0.517568 0.472494 0.505373
4 2 0.501229 0.490431 0.520611
40 2 0.512281 0.489012 0.50944
85 2 0.52237 0.496204 0.523344
137 2 0.524757 0.480823 0.519089
7 2 0.528399 0.486549 0.503279
138 1 0.54417 0.494455 0.501037
79 1 0.544153 0.482214 0.511729
100 1 0.546986 0.499534 0.516371
115 1 0.539092 0.486985 0.528858
95 2 0.463784 0.500861 0.510566
35 2 0.466089 0.51674 0.504169
62 1 0.459153 0.516894 0.519547
141 2 0.481932 0.513668 0.501168
54 2 0.479711 0.528041 0.50658
58 2 0.499484 0.504747 0.508117
128 2 0.475105 0.512616 0.516808
96 2 0.490778 0.517044 0.515423
72 2 0.488133 0.505877 0.528577
83 2 0.498595 0.521139 0.528306
78 2 0.506867 0.517217 0.514246
103 2 0.516337 0.50445 0.509935
109 2 0.520849 0.520539 0.504189
33 2 0.522092 0.513852 0.522513
129 2 0.507637 0.504767 0.525098
116 2 0.53124 0.503184 0.509907
46 1 0.537558 0.518143 0.506703
87 1 0.536691 0.50812 0.528191
105 1 0.533617 0.525116 0.520965
80 1 0.471217 0.529899 0.519904
130 1 0.487694 0.543064 0.509104
44 1 0.487411 0.531479 0.520518
68 2 0.51648 0.530604 0.518167
74 1 0.500794 0.53156 0.510124
120 1 0.514849 0.543281 0.507864
1 1 0.502736 0.536381 0.528159
89 1 0.530852 0.535291 0.50561
125 2 0.49702 0.479911 0.532105
42 1 0.482262 0.474352 0.536182
88 2 0.471775 0.490769 0.536153
19 1 0.484392 0.487222 0.548594
64 2 0.496046 0.494624 0.539058
110 2 0.511163 0.489491 0.533958
112 1 0.516859 0.471643 0.532936
140 1 0.526327 0.485191 0.536348
135 1 0.505382 0.483221 0.54755
27 1 0.468443 0.511737 0.53257
36 1 0.482677 0.521237 0.533636
29 1 0.482487 0.501898 0.544219
47 1 0.494874 0.513238 0.543541
82 1 0.510261 0.501964 0.542898
77 1 0.510641 0.518895 0.537248
136 1 0.525863 0.502591 0.539405
ITEM: TIMESTEP
7755000
ITEM: NUMBER OF ATOMS
141
ITEM: BOX BOUNDS pp pp pp
0.0000000000000000e+00 1.4356000000000000e+02
0.0000000000000000e+00 1.4356000000000000e+02
0.0000000000000000e+00 1.4356000000000000e+02
ITEM: ATOMS id type xs ys zs
17 1 0.495795 0.473972 0.463902
114 2 0.479559 0.495439 0.461779
16 1 0.489382 0.485077 0.451955
73 2 0.495321 0.49343 0.466148
132 2 0.479553 0.479005 0.466942
75 1 0.508352 0.482752 0.458627
37 1 0.508266 0.499298 0.454377
118 2 0.519431 0.481419 0.470375
25 2 0.512672 0.496325 0.471835
101 1 0.472597 0.509515 0.456869
98 1 0.472784 0.52509 0.465555
51 1 0.490988 0.503746 0.454027
90 2 0.485123 0.508962 0.470445
18 1 0.487753 0.520693 0.455839
9 2 0.489085 0.532189 0.469212
14 2 0.502948 0.509953 0.466173
86 1 0.502531 0.514719 0.450842
65 1 0.50417 0.526179 0.461617
102 2 0.520157 0.512487 0.462714
21 1 0.531767 0.52617 0.462538
45 1 0.529715 0.497257 0.466224
117 1 0.461553 0.474601 0.496455
107 1 0.471046 0.471803 0.483297
63 1 0.500088 0.458694 0.488321
121 1 0.488214 0.466007 0.476101
43 1 0.483169 0.463212 0.492278
38 1 0.507833 0.466754 0.474655
23 1 0.511275 0.464566 0.49874
134 1 0.464477 0.488672 0.474724
94 2 0.455834 0.490911 0.493289
5 2 0.486344 0.479876 0.482375
20 2 0.468882 0.503015 0.488896
69 2 0.472371 0.486469 0.491337
32 2 0.490687 0.492117 0.492851
91 2 0.481037 0.49341 0.478283
52 2 0.498308 0.500941 0.480899
67 2 0.484624 0.478603 0.498337
55 2 0.500776 0.475576 0.491828
106 2 0.515036 0.48449 0.497566
92 2 0.515915 0.473794 0.486251
139 1 0.503949 0.482422 0.477754
104 2 0.512399 0.49724 0.489886
113 1 0.52993 0.472197 0.4976
6 2 0.527613 0.484671 0.484005
138 1 0.540023 0.485104 0.499747
124 1 0.456262 0.50161 0.48064
35 2 0.465781 0.521272 0.48417
133 2 0.470453 0.507662 0.473472
56 2 0.49988 0.52045 0.479169
8 2 0.484996 0.506592 0.486775
48 2 0.481961 0.521404 0.479582
34 2 0.490076 0.520768 0.494972
141 2 0.473656 0.513827 0.49852
81 2 0.476418 0.530211 0.494931
24 2 0.515002 0.512868 0.480266
108 2 0.503216 0.509429 0.493338
10 2 0.519176 0.511397 0.495043
57 2 0.511213 0.527108 0.491075
131 2 0.527026 0.501316 0.482572
3 2 0.53218 0.514134 0.475848
53 1 0.542743 0.497131 0.485137
26 2 0.535824 0.511718 0.49305
89 1 0.528333 0.526148 0.48739
97 2 0.490184 0.535571 0.486215
49 1 0.471324 0.536324 0.479324
70 1 0.505551 0.545327 0.488895
50 1 0.505028 0.536672 0.475324
59 1 0.519469 0.527842 0.471764
120 1 0.521559 0.541117 0.483994
11 2 0.492977 0.459495 0.521581
30 1 0.484247 0.45062 0.503633
42 1 0.477464 0.464143 0.522656
31 1 0.474057 0.467186 0.50486
28 1 0.50465 0.451662 0.505117
111 1 0.52437 0.458485 0.515621
39 1 0.462907 0.471538 0.517749
123 1 0.472217 0.479675 0.531441
95 2 0.459503 0.493486 0.512569
93 2 0.47581 0.494842 0.519782
126 2 0.48591 0.474831 0.516807
76 2 0.471596 0.48216 0.506801
60 2 0.48791 0.490178 0.510954
2 2 0.494084 0.464021 0.505595
4 2 0.489874 0.487935 0.529591
99 2 0.476533 0.498318 0.502887
15 2 0.501723 0.495154 0.503037
22 2 0.499866 0.479605 0.506752
71 2 0.529078 0.496465 0.498607
122 2 0.507675 0.465243 0.515272
13 2 0.520325 0.474361 0.510302
40 2 0.510954 0.487445 0.515792
85 2 0.520077 0.499215 0.525866
137 2 0.521156 0.479003 0.526081
7 2 0.526676 0.49008 0.514158
61 1 0.546908 0.500494 0.50133
41 1 0.538014 0.478333 0.515664
127 1 0.458669 0.50605 0.501001
128 2 0.466367 0.510673 0.515992
62 1 0.466625 0.528377 0.509102
54 2 0.484928 0.521849 0.509089
58 2 0.490196 0.507795 0.505239
96 2 0.483073 0.508473 0.518331
78 2 0.496682 0.518939 0.519155
84 2 0.505793 0.519189 0.506316
103 2 0.516057 0.50106 0.508747
109 2 0.521478 0.52503 0.505126
33 2 0.516798 0.516762 0.518398
129 2 0.500707 0.500823 0.519143
100 1 0.544054 0.517166 0.513055
116 2 0.52888 0.510118 0.508735
46 1 0.535816 0.531552 0.50374
87 1 0.539531 0.499256 0.517411
136 1 0.530158 0.526434 0.52137
80 1 0.475507 0.527664 0.522105
130 1 0.484728 0.537931 0.508529
74 1 0.493424 0.535189 0.522728
12 2 0.500903 0.533688 0.500666
1 1 0.509477 0.533177 0.520079
105 1 0.524688 0.540774 0.516892
68 2 0.516717 0.539314 0.501493
112 1 0.510836 0.467109 0.532203
125 2 0.498823 0.476021 0.524937
88 2 0.476221 0.497678 0.535455
27 1 0.486157 0.470042 0.535819
66 2 0.491325 0.493367 0.544933
19 1 0.49996 0.479625 0.54264
110 2 0.505106 0.493271 0.532892
135 1 0.507756 0.493563 0.552429
140 1 0.516122 0.481602 0.542282
82 1 0.523319 0.497327 0.542287
79 1 0.534797 0.48888 0.531166
72 2 0.471712 0.512613 0.530652
29 1 0.483112 0.509015 0.546093
64 2 0.491559 0.506053 0.532272
36 1 0.48679 0.521565 0.535169
47 1 0.498656 0.50856 0.548619
83 2 0.506953 0.509836 0.532332
115 1 0.519974 0.524469 0.535429
44 1 0.502896 0.525137 0.534936
77 1 0.519316 0.510974 0.547588
119 1 0.531747 0.510958 0.527733
ITEM: TIMESTEP
7760000
ITEM: NUMBER OF ATOMS
141
ITEM: BOX BOUNDS pp pp pp
0.0000000000000000e+00 1.4356000000000000e+02
0.0000000000000000e+00 1.4356000000000000e+02
0.0000000000000000e+00 1.4356000000000000e+02
ITEM: ATOMS id type xs ys zs
17 1 0.476719 0.485752 0.463252
114 2 0.483694 0.501428 0.46341
16 1 0.493852 0.488675 0.45963
38 1 0.488623 0.470619 0.462603
75 1 0.511771 0.482502 0.458954
37 1 0.510979 0.498687 0.453819
118 2 0.522889 0.486467 0.469144
45 1 0.528132 0.501493 0.457816
92 2 0.520921 0.47057 0.478471
73 2 0.500331 0.50249 0.465936
101 1 0.476128 0.519154 0.460797
51 1 0.494739 0.502863 0.451022
18 1 0.492606 0.516632 0.465137
86 1 0.510854 0.513008 0.45677
25 2 0.516535 0.501046 0.470726
102 2 0.519602 0.517599 0.469957
50 1 0.507114 0.52641 0.465884
121 1 0.495092 0.460828 0.47811
63 1 0.492022 0.456894 0.498803
107 1 0.475031 0.461045 0.495461
23 1 0.505917 0.47111 0.466523
28 1 0.509087 0.459236 0.487235
117 1 0.467008 0.474914 0.487272
134 1 0.460048 0.483793 0.4749
94 2 0.46312 0.493316 0.488371
133 2 0.469966 0.499973 0.471762
132 2 0.479205 0.468405 0.478318
5 2 0.491962 0.478649 0.477177
69 2 0.477242 0.485928 0.480158
32 2 0.493706 0.487947 0.491044
91 2 0.490176 0.495969 0.476325
67 2 0.48659 0.473328 0.492893
139 1 0.505975 0.488172 0.472526
55 2 0.506023 0.475224 0.483963
106 2 0.519117 0.472 0.494616
104 2 0.518666 0.485728 0.48405
71 2 0.528952 0.488639 0.497415
131 2 0.528855 0.499021 0.480052
15 2 0.509767 0.485712 0.496113
103 2 0.502081 0.499229 0.501061
6 2 0.534307 0.482594 0.479448
53 1 0.54583 0.496662 0.476845
113 1 0.537019 0.474767 0.494618
98 1 0.467885 0.517527 0.477197
124 1 0.455961 0.504889 0.480287
48 2 0.462037 0.515526 0.496369
9 2 0.482826 0.52768 0.473902
20 2 0.47633 0.49914 0.487575
90 2 0.481743 0.510514 0.476099
8 2 0.493317 0.507212 0.487057
34 2 0.478671 0.516588 0.492828
56 2 0.494309 0.524025 0.4843
52 2 0.506503 0.498784 0.485204
14 2 0.505254 0.514428 0.477503
24 2 0.517926 0.501259 0.496277
108 2 0.508023 0.514837 0.494997
59 1 0.521279 0.515835 0.485965
3 2 0.536996 0.51146 0.474097
21 1 0.53847 0.524113 0.485005
89 1 0.542493 0.521335 0.50246
26 2 0.533349 0.5061 0.49251
61 1 0.549586 0.512156 0.488856
81 2 0.470909 0.527688 0.503865
49 1 0.46669 0.529934 0.486499
97 2 0.495328 0.542918 0.484261
12 2 0.501918 0.533337 0.499808
130 1 0.482494 0.533606 0.492073
65 1 0.525611 0.532882 0.477965
57 2 0.510233 0.530804 0.485428
120 1 0.53183 0.535696 0.494667
70 1 0.509713 0.546588 0.49214
31 1 0.472699 0.471645 0.5064
43 1 0.476832 0.457761 0.512195
30 1 0.483101 0.464263 0.525441
126 2 0.490341 0.470821 0.511003
111 1 0.512973 0.464189 0.510193
122 2 0.498647 0.457437 0.514787
41 1 0.528866 0.469971 0.520364
42 1 0.470096 0.475843 0.527275
39 1 0.459032 0.483599 0.501841
95 2 0.468796 0.487514 0.514463
99 2 0.467335 0.500626 0.504942
127 1 0.452785 0.495042 0.513374
58 2 0.484382 0.503766 0.500271
11 2 0.498925 0.471746 0.525401
93 2 0.479514 0.500085 0.518731
76 2 0.475691 0.486366 0.498056
4 2 0.483984 0.482684 0.522432
22 2 0.487352 0.488119 0.508594
125 2 0.496141 0.492953 0.520568
2 2 0.501107 0.471992 0.498413
13 2 0.503305 0.480972 0.511949
40 2 0.513543 0.493584 0.513232
137 2 0.515485 0.480595 0.525105
7 2 0.522063 0.481119 0.510373
119 1 0.525663 0.502258 0.527032
79 1 0.531921 0.486546 0.52652
116 2 0.530121 0.49958 0.511863
138 1 0.540067 0.485774 0.510745
87 1 0.547005 0.490642 0.496154
35 2 0.451647 0.502218 0.496234
128 2 0.464876 0.504104 0.52215
62 1 0.454068 0.511233 0.511386
80 1 0.468333 0.523419 0.52206
141 2 0.474378 0.512849 0.508448
60 2 0.498143 0.507476 0.514703
54 2 0.486306 0.52955 0.50964
96 2 0.485086 0.518673 0.522758
78 2 0.496599 0.52481 0.531595
84 2 0.49266 0.518073 0.500182
10 2 0.52646 0.516965 0.502466
85 2 0.533443 0.515437 0.518504
33 2 0.518078 0.522979 0.519865
129 2 0.516436 0.508997 0.511721
83 2 0.507649 0.512939 0.527146
105 1 0.531008 0.531024 0.511381
100 1 0.543095 0.501491 0.523075
46 1 0.546641 0.504522 0.505283
109 2 0.502289 0.524977 0.514128
1 1 0.496157 0.54704 0.506377
74 1 0.482366 0.534548 0.524086
68 2 0.515924 0.528173 0.500979
115 1 0.513636 0.542376 0.509398
112 1 0.514938 0.464233 0.526249
123 1 0.474072 0.481859 0.54394
27 1 0.48661 0.471795 0.539269
66 2 0.490731 0.489805 0.536756
135 1 0.504632 0.496888 0.545485
19 1 0.506111 0.478493 0.538934
110 2 0.509082 0.496382 0.52859
140 1 0.52056 0.489809 0.54068
88 2 0.473548 0.494662 0.532844
72 2 0.47651 0.510063 0.533021
29 1 0.483032 0.502611 0.545478
64 2 0.493763 0.506616 0.531639
36 1 0.483802 0.522146 0.543279
82 1 0.517179 0.507913 0.542205
47 1 0.499072 0.512316 0.547775
77 1 0.511997 0.52476 0.537069
136 1 0.526578 0.521503 0.534541
44 1 0.499218 0.540988 0.522617
ITEM: TIMESTEP
7765000
ITEM: NUMBER OF ATOMS
141
ITEM: BOX BOUNDS pp pp pp
0.0000000000000000e+00 1.4356000000000000e+02
0.0000000000000000e+00 1.4356000000000000e+02
0.0000000000000000e+00 1.4356000000000000e+02
ITEM: ATOMS id type xs ys zs
38 1 0.475861 0.479488 0.466138
17 1 0.471248 0.496297 0.464402
16 1 0.490809 0.486791 0.460199
75 1 0.495987 0.472754 0.47086
37 1 0.519439 0.493004 0.456443
118 2 0.508201 0.486374 0.46674
139 1 0.498528 0.500812 0.473096
104 2 0.526351 0.48258 0.473512
98 1 0.473034 0.511387 0.460677
101 1 0.488796 0.503315 0.458811
18 1 0.4842 0.525235 0.461516
51 1 0.50512 0.499755 0.456481
45 1 0.531882 0.498587 0.467079
86 1 0.518189 0.515802 0.459177
25 2 0.516105 0.501268 0.470411
65 1 0.522694 0.528716 0.470605
121 1 0.481224 0.46534 0.480379
107 1 0.471236 0.464413 0.493662
63 1 0.491008 0.456152 0.493977
23 1 0.502068 0.459425 0.479642
28 1 0.508559 0.456676 0.4946
55 2 0.518395 0.470203 0.49229
106 2 0.531089 0.470977 0.503325
132 2 0.468124 0.476508 0.481583
117 1 0.454898 0.477023 0.491637
134 1 0.45603 0.490295 0.478676
35 2 0.457758 0.492479 0.495255
94 2 0.470602 0.482606 0.497488
133 2 0.471086 0.492137 0.485594
5 2 0.500916 0.473745 0.487825
69 2 0.48351 0.481172 0.483798
32 2 0.496739 0.490211 0.484759
91 2 0.482694 0.497009 0.47638
67 2 0.484026 0.473689 0.498021
58 2 0.481881 0.498029 0.495093
92 2 0.513867 0.471442 0.475699
15 2 0.513623 0.486596 0.482254
6 2 0.53201 0.471229 0.484583
24 2 0.518996 0.496827 0.498844
13 2 0.508179 0.483541 0.499055
71 2 0.52633 0.485751 0.492647
87 1 0.544253 0.487331 0.487807
46 1 0.553247 0.499331 0.497059
124 1 0.4503 0.509586 0.486657
48 2 0.461843 0.522283 0.484504
114 2 0.467088 0.507569 0.47663
73 2 0.501916 0.515819 0.461824
49 1 0.470789 0.525821 0.470308
20 2 0.47694 0.515067 0.488249
90 2 0.485285 0.51434 0.473844
8 2 0.492383 0.507755 0.48641
34 2 0.488696 0.526287 0.49345
81 2 0.470838 0.527913 0.501293
56 2 0.498842 0.524058 0.479634
131 2 0.526391 0.498802 0.483497
52 2 0.509132 0.502049 0.486413
14 2 0.513511 0.51623 0.476097
108 2 0.506628 0.516833 0.49286
10 2 0.525561 0.513491 0.494075
57 2 0.512432 0.530792 0.487587
53 1 0.543351 0.505221 0.482248
102 2 0.530306 0.514096 0.475113
3 2 0.535833 0.52916 0.503036
61 1 0.541329 0.51803 0.489141
9 2 0.487621 0.535062 0.472385
12 2 0.502544 0.533083 0.500349
130 1 0.476514 0.534857 0.485487
97 2 0.498545 0.540686 0.48362
50 1 0.508056 0.530565 0.465389
59 1 0.528786 0.53023 0.485591
70 1 0.514101 0.543117 0.475305
120 1 0.522555 0.541941 0.497991
31 1 0.466661 0.470956 0.509716
43 1 0.479183 0.459372 0.509295
30 1 0.473371 0.46608 0.52289
122 2 0.496929 0.452659 0.509433
2 2 0.498315 0.46883 0.505035
111 1 0.513456 0.466185 0.508155
113 1 0.541987 0.485388 0.502827
42 1 0.463436 0.481127 0.522769
39 1 0.456429 0.485462 0.509756
127 1 0.461957 0.498948 0.523282
95 2 0.469939 0.496214 0.508699
126 2 0.490008 0.470419 0.51808
76 2 0.479642 0.483375 0.51328
4 2 0.492104 0.488748 0.521544
22 2 0.49365 0.48461 0.505016
88 2 0.476686 0.493695 0.524746
103 2 0.500122 0.500167 0.499592
11 2 0.506469 0.479172 0.519267
41 1 0.524181 0.469293 0.523424
40 2 0.50907 0.493243 0.51343
137 2 0.520156 0.48571 0.527121
7 2 0.521604 0.481369 0.509875
116 2 0.527429 0.495816 0.514194
138 1 0.538275 0.483374 0.520006
99 2 0.465218 0.505682 0.496758
62 1 0.459612 0.514081 0.511857
80 1 0.475253 0.526636 0.519865
128 2 0.474267 0.510405 0.521722
64 2 0.4905 0.503799 0.52982
93 2 0.486343 0.499731 0.511936
141 2 0.476461 0.511981 0.5056
96 2 0.488622 0.515936 0.518819
84 2 0.493994 0.513868 0.502949
109 2 0.502116 0.525008 0.513848
110 2 0.516188 0.505429 0.523556
60 2 0.501349 0.504913 0.518429
129 2 0.511409 0.509833 0.507536
83 2 0.518062 0.522154 0.518121
136 1 0.533488 0.513821 0.526507
68 2 0.517636 0.524356 0.501752
26 2 0.535326 0.500061 0.497738
85 2 0.528959 0.512417 0.509316
89 1 0.546137 0.512078 0.506107
100 1 0.543581 0.498032 0.514759
79 1 0.531745 0.497421 0.529133
54 2 0.486374 0.530486 0.508693
1 1 0.488892 0.544411 0.497043
44 1 0.492111 0.533916 0.526763
33 2 0.497576 0.540328 0.513683
115 1 0.505948 0.548674 0.498586
105 1 0.513994 0.540821 0.512012
21 1 0.536809 0.526657 0.518611
27 1 0.490089 0.461489 0.5314
112 1 0.508403 0.464125 0.525612
123 1 0.480336 0.478476 0.530499
66 2 0.499605 0.47625 0.532802
29 1 0.490852 0.489671 0.538824
135 1 0.489383 0.473749 0.545379
125 2 0.50658 0.494695 0.53024
19 1 0.515517 0.473644 0.539299
140 1 0.520034 0.500382 0.540336
47 1 0.50722 0.48931 0.544839
74 1 0.482409 0.519076 0.534626
72 2 0.472186 0.502165 0.537627
78 2 0.501879 0.515359 0.529924
36 1 0.487239 0.506805 0.547157
82 1 0.503394 0.504592 0.542339
119 1 0.516638 0.51824 0.535495
77 1 0.510816 0.533268 0.528075
ITEM: TIMESTEP
7770000
ITEM: NUMBER OF ATOMS
141
ITEM: BOX BOUNDS pp pp pp
0.0000000000000000e+00 1.4356000000000000e+02
0.0000000000000000e+00 1.4356000000000000e+02
0.0000000000000000e+00 1.4356000000000000e+02
ITEM: ATOMS id type xs ys zs
75 1 0.495596 0.470991 0.464616
17 1 0.461498 0.495192 0.469991
38 1 0.475186 0.495855 0.459873
37 1 0.490327 0.489351 0.46262
121 1 0.478097 0.480288 0.466955
16 1 0.520169 0.473587 0.466556
86 1 0.516472 0.489792 0.460334
45 1 0.519737 0.507378 0.46191
91 2 0.476229 0.511255 0.466095
98 1 0.484373 0.526199 0.460797
101 1 0.491017 0.507967 0.457903
50 1 0.501306 0.521165 0.459666
51 1 0.503643 0.501541 0.462304
65 1 0.517329 0.52172 0.465873
18 1 0.486661 0.539239 0.474002
31 1 0.466719 0.464917 0.490676
23 1 0.49691 0.460554 0.476945
107 1 0.480833 0.466503 0.477204
63 1 0.48851 0.459396 0.491439
2 2 0.495734 0.46686 0.50396
118 2 0.516368 0.466506 0.482818
28 1 0.529931 0.467104 0.491682
92 2 0.504952 0.460224 0.49212
106 2 0.530946 0.468269 0.506627
117 1 0.454594 0.481294 0.492251
134 1 0.460937 0.497411 0.485423
94 2 0.47109 0.485976 0.493413
132 2 0.468721 0.47889 0.479678
133 2 0.475733 0.495613 0.477423
5 2 0.50026 0.475105 0.48388
69 2 0.488499 0.485484 0.477803
67 2 0.484257 0.476046 0.490965
139 1 0.49134 0.501262 0.473091
103 2 0.501994 0.49395 0.483946
58 2 0.486994 0.491469 0.494635
32 2 0.504912 0.484139 0.471173
25 2 0.514753 0.499097 0.475736
55 2 0.515217 0.472512 0.497406
6 2 0.527864 0.483556 0.492771
15 2 0.513676 0.483402 0.484122
24 2 0.513431 0.490714 0.497661
131 2 0.525442 0.499575 0.486931
104 2 0.52832 0.486392 0.474451
87 1 0.543529 0.4749 0.490976
53 1 0.541521 0.493148 0.483974
114 2 0.460811 0.511608 0.474732
124 1 0.454741 0.507678 0.498366
48 2 0.465593 0.520278 0.48953
99 2 0.470935 0.50353 0.497527
20 2 0.476891 0.510652 0.482211
90 2 0.488561 0.520169 0.475695
8 2 0.49164 0.506618 0.487944
34 2 0.483396 0.517133 0.497112
108 2 0.498963 0.522914 0.489168
49 1 0.472749 0.526324 0.474188
9 2 0.481709 0.530363 0.487821
73 2 0.504533 0.513734 0.474667
52 2 0.508224 0.509416 0.490386
14 2 0.515843 0.525072 0.488936
10 2 0.526467 0.511981 0.497411
102 2 0.522048 0.51413 0.480499
59 1 0.53412 0.522451 0.470297
61 1 0.533094 0.504416 0.471733
89 1 0.539412 0.510379 0.485565
12 2 0.49009 0.530833 0.501247
130 1 0.480523 0.544423 0.499778
97 2 0.491978 0.544026 0.488897
56 2 0.502524 0.531043 0.474148
57 2 0.507858 0.539205 0.490523
70 1 0.519732 0.534341 0.475893
120 1 0.524274 0.539045 0.495076
43 1 0.488642 0.455796 0.514847
27 1 0.485365 0.465217 0.531299
122 2 0.519684 0.456868 0.504495
111 1 0.519239 0.463281 0.519793
112 1 0.505851 0.45692 0.513919
19 1 0.502927 0.462701 0.52858
35 2 0.458208 0.4937 0.507538
39 1 0.475981 0.459786 0.504103
76 2 0.466911 0.487217 0.523578
127 1 0.461821 0.478317 0.509971
30 1 0.474162 0.469898 0.52061
126 2 0.490547 0.47399 0.518511
95 2 0.474775 0.490748 0.508112
4 2 0.490749 0.489126 0.514136
22 2 0.480097 0.4765 0.506706
88 2 0.477543 0.499513 0.521106
93 2 0.499018 0.500282 0.500709
13 2 0.499139 0.48206 0.500688
11 2 0.506804 0.472524 0.514051
40 2 0.506609 0.490124 0.51166
7 2 0.52187 0.481836 0.510648
116 2 0.522273 0.497385 0.51895
41 1 0.516225 0.476978 0.528638
66 2 0.50001 0.483389 0.528473
26 2 0.529079 0.496458 0.503593
71 2 0.538264 0.481167 0.505575
138 1 0.532243 0.476362 0.522613
113 1 0.537805 0.491698 0.518018
42 1 0.459982 0.504828 0.521438
62 1 0.457726 0.522175 0.508108
128 2 0.473453 0.515284 0.513498
141 2 0.485764 0.503643 0.507456
96 2 0.488572 0.515202 0.527994
54 2 0.490932 0.520906 0.512606
84 2 0.503768 0.516828 0.503169
3 2 0.507022 0.531924 0.506221
109 2 0.505078 0.522471 0.52031
110 2 0.51718 0.512179 0.524912
60 2 0.49945 0.505614 0.516877
129 2 0.5135 0.504493 0.506503
68 2 0.518535 0.520009 0.509416
136 1 0.530732 0.523047 0.523369
46 1 0.545343 0.498845 0.500355
85 2 0.532353 0.509357 0.514286
100 1 0.543794 0.515163 0.502798
79 1 0.531769 0.507565 0.532339
115 1 0.495785 0.549434 0.505274
81 2 0.47325 0.527485 0.50276
80 1 0.478594 0.528773 0.5257
1 1 0.491771 0.53745 0.518678
77 1 0.506512 0.54025 0.52358
83 2 0.519216 0.53414 0.516497
33 2 0.51353 0.546279 0.507649
105 1 0.532354 0.528021 0.505589
21 1 0.534117 0.52704 0.486245
123 1 0.482853 0.482285 0.530383
135 1 0.49505 0.475463 0.543241
29 1 0.49137 0.492464 0.546607
64 2 0.490666 0.498885 0.529438
72 2 0.476571 0.498514 0.537698
82 1 0.505695 0.49957 0.545317
125 2 0.509516 0.496063 0.527095
47 1 0.510446 0.484086 0.542009
137 2 0.524171 0.491302 0.532883
44 1 0.494912 0.531338 0.533747
74 1 0.47111 0.513168 0.532601
36 1 0.490202 0.509433 0.544483
140 1 0.518121 0.512645 0.543249
78 2 0.503135 0.513152 0.534062
119 1 0.514826 0.527303 0.533658
ITEM: TIMESTEP
7775000
ITEM: NUMBER OF ATOMS
141
ITEM: BOX BOUNDS pp pp pp
0.0000000000000000e+00 1.4356000000000000e+02
0.0000000000000000e+00 1.4356000000000000e+02
0.0000000000000000e+00 1.4356000000000000e+02
ITEM: ATOMS id type xs ys zs
75 1 0.50237 0.459479 0.469225
38 1 0.488577 0.494175 0.460369
37 1 0.493519 0.475322 0.463184
121 1 0.477442 0.482795 0.467565
16 1 0.50882 0.479309 0.466166
86 1 0.520721 0.49124 0.461208
51 1 0.504667 0.496905 0.451981
32 2 0.505202 0.496163 0.468827
91 2 0.480542 0.510572 0.469767
101 1 0.497297 0.507799 0.462036
98 1 0.4852 0.525792 0.463862
45 1 0.514215 0.506651 0.457847
50 1 0.506043 0.52164 0.457246
61 1 0.52915 0.510728 0.464539
39 1 0.466921 0.472352 0.494292
31 1 0.468148 0.473045 0.47813
107 1 0.483718 0.46818 0.475815
63 1 0.477456 0.460843 0.488493
92 2 0.494378 0.467858 0.497266
23 1 0.491062 0.453385 0.484485
122 2 0.527324 0.468515 0.488612
43 1 0.507718 0.459309 0.48966
17 1 0.462979 0.489033 0.470923
117 1 0.453359 0.480699 0.485007
134 1 0.455486 0.49768 0.489293
133 2 0.479625 0.495144 0.476065
132 2 0.470916 0.489246 0.4858
69 2 0.493235 0.487098 0.474251
67 2 0.484994 0.478792 0.488318
58 2 0.48569 0.494124 0.492968
5 2 0.499573 0.473578 0.480957
118 2 0.514923 0.469157 0.477444
103 2 0.49948 0.486621 0.49114
15 2 0.514809 0.487937 0.481574
24 2 0.513557 0.490908 0.499463
6 2 0.532148 0.484643 0.486897
104 2 0.527653 0.47837 0.47288
55 2 0.510956 0.475873 0.492144
10 2 0.529547 0.500746 0.488672
131 2 0.536019 0.494871 0.471857
53 1 0.543151 0.472348 0.484574
46 1 0.545958 0.49371 0.486398
99 2 0.470649 0.501235 0.497685
114 2 0.467154 0.505281 0.47819
48 2 0.465216 0.516525 0.491134
49 1 0.469426 0.523579 0.475718
139 1 0.495334 0.504827 0.47999
20 2 0.480566 0.510494 0.487639
90 2 0.487852 0.522447 0.478893
8 2 0.497506 0.516383 0.490125
9 2 0.4799 0.526299 0.492947
65 1 0.521481 0.527031 0.469499
25 2 0.510243 0.5047 0.486889
108 2 0.510897 0.524418 0.487061
73 2 0.508859 0.514106 0.472531
14 2 0.522535 0.515828 0.485091
102 2 0.521313 0.502175 0.475424
59 1 0.538321 0.526838 0.476064
89 1 0.540842 0.50974 0.481526
21 1 0.53761 0.523438 0.493747
100 1 0.544432 0.50439 0.498557
130 1 0.465481 0.534579 0.493758
18 1 0.478943 0.539246 0.482279
97 2 0.494263 0.537549 0.488234
56 2 0.50193 0.52825 0.472289
57 2 0.511265 0.539732 0.483609
70 1 0.526305 0.533581 0.486465
120 1 0.521349 0.542269 0.498627
2 2 0.478836 0.469597 0.507777
27 1 0.483071 0.454083 0.501742
126 2 0.49324 0.470044 0.51913
30 1 0.473641 0.4693 0.525676
111 1 0.523064 0.469643 0.518718
112 1 0.520105 0.462377 0.503161
19 1 0.500493 0.455565 0.508206
28 1 0.538314 0.468097 0.504657
35 2 0.455965 0.485771 0.501394
127 1 0.462425 0.475165 0.512346
95 2 0.465602 0.492747 0.514264
13 2 0.491295 0.481525 0.506203
94 2 0.47514 0.484609 0.502944
4 2 0.47647 0.49842 0.528005
22 2 0.480751 0.484834 0.518752
141 2 0.487719 0.498003 0.509122
106 2 0.527358 0.480199 0.500567
11 2 0.509702 0.471803 0.508217
40 2 0.501476 0.487119 0.516365
7 2 0.519971 0.486508 0.515234
26 2 0.528769 0.496079 0.502678
116 2 0.524293 0.502287 0.517709
87 1 0.543395 0.485655 0.501082
71 2 0.537822 0.483545 0.516583
113 1 0.542037 0.501362 0.515182
124 1 0.455561 0.504358 0.50672
42 1 0.461224 0.503174 0.525091
62 1 0.458039 0.520089 0.506112
80 1 0.467034 0.521993 0.522547
128 2 0.471766 0.509934 0.51269
60 2 0.493252 0.500207 0.527321
93 2 0.500988 0.502707 0.500115
34 2 0.484841 0.513415 0.502603
88 2 0.483009 0.513285 0.522742
84 2 0.49592 0.512708 0.513953
81 2 0.474286 0.524844 0.506585
12 2 0.491848 0.527197 0.505069
109 2 0.502189 0.52741 0.520451
52 2 0.506844 0.52156 0.505763
110 2 0.515449 0.516599 0.519594
129 2 0.507335 0.501072 0.514616
68 2 0.517674 0.507678 0.502958
3 2 0.520784 0.524451 0.500527
78 2 0.506671 0.509321 0.530962
119 1 0.516262 0.523689 0.534734
136 1 0.52946 0.526768 0.523141
85 2 0.532515 0.513615 0.509068
105 1 0.533743 0.533737 0.509145
54 2 0.481112 0.52989 0.51956
115 1 0.48147 0.541411 0.499356
1 1 0.493135 0.541591 0.511873
44 1 0.485833 0.540462 0.529256
83 2 0.51482 0.535179 0.515161
33 2 0.506313 0.535873 0.49883
77 1 0.505877 0.538339 0.532638
76 2 0.464964 0.483601 0.528823
66 2 0.493676 0.483786 0.530765
123 1 0.479107 0.486929 0.53908
135 1 0.494414 0.469376 0.538623
29 1 0.493432 0.481892 0.547107
64 2 0.50081 0.495752 0.541636
41 1 0.509715 0.476652 0.528015
137 2 0.509689 0.491893 0.528573
138 1 0.525562 0.480861 0.52956
47 1 0.513576 0.484281 0.543092
74 1 0.470247 0.513657 0.53537
72 2 0.488882 0.508545 0.540509
96 2 0.480857 0.52542 0.535456
82 1 0.496931 0.525473 0.536509
125 2 0.527858 0.51098 0.530756
79 1 0.520399 0.498644 0.540929
36 1 0.504425 0.513003 0.546201
140 1 0.533843 0.495419 0.529377
ITEM: TIMESTEP
7780000
ITEM: NUMBER OF ATOMS
141
ITEM: BOX BOUNDS pp pp pp
0.0000000000000000e+00 1.4356000000000000e+02
0.0000000000000000e+00 1.4356000000000000e+02
0.0000000000000000e+00 1.4356000000000000e+02
ITEM: ATOMS id type xs ys zs
37 1 0.498623 0.47127 0.460533
121 1 0.474721 0.496855 0.462899
51 1 0.490147 0.499345 0.453243
69 2 0.487655 0.482194 0.467508
139 1 0.492922 0.50049 0.470355
32 2 0.505087 0.487917 0.464901
61 1 0.516952 0.477216 0.461661
45 1 0.522884 0.49411 0.46202
102 2 0.510477 0.501522 0.475278
38 1 0.47909 0.512397 0.45728
91 2 0.474503 0.522454 0.472417
98 1 0.498133 0.515897 0.455766
101 1 0.505908 0.501935 0.459438
73 2 0.506362 0.517408 0.469918
18 1 0.483757 0.526782 0.455222
50 1 0.499304 0.532503 0.467827
107 1 0.48905 0.466721 0.475338
63 1 0.477696 0.468196 0.489659
75 1 0.48925 0.456774 0.490936
92 2 0.500652 0.468961 0.493678
16 1 0.502715 0.456642 0.481859
43 1 0.515148 0.461756 0.492657
23 1 0.502876 0.45585 0.506009
17 1 0.460724 0.491859 0.471397
39 1 0.463307 0.48004 0.485233
117 1 0.454952 0.493813 0.486198
132 2 0.47006 0.500538 0.490469
31 1 0.473982 0.476027 0.471774
5 2 0.48851 0.481443 0.484694
67 2 0.474838 0.491181 0.48055
103 2 0.502969 0.489496 0.485287
94 2 0.478243 0.48552 0.496222
86 1 0.519643 0.467593 0.476435
118 2 0.512375 0.480921 0.493634
15 2 0.503677 0.474486 0.477339
104 2 0.528129 0.481815 0.503057
6 2 0.518326 0.498208 0.489399
93 2 0.503721 0.499387 0.498078
131 2 0.51851 0.487095 0.478012
122 2 0.527273 0.471733 0.490379
53 1 0.531445 0.478689 0.472764