ITEM: TIMESTEP
8850000
ITEM: NUMBER OF ATOMS
141
ITEM: BOX BOUNDS pp pp pp
0.0000000000000000e+00 1.4356000000000000e+02
0.0000000000000000e+00 1.4356000000000000e+02
0.0000000000000000e+00 1.4356000000000000e+02
ITEM: ATOMS id type xs ys zs
41 1 0.468405 0.491077 0.466481
75 1 0.497407 0.480016 0.45814
53 1 0.479274 0.479897 0.46215
109 2 0.487939 0.496431 0.466753
47 1 0.499444 0.499109 0.455164
17 1 0.480502 0.494134 0.453109
136 1 0.514762 0.483184 0.457854
98 1 0.509362 0.47327 0.468688
34 2 0.515747 0.499861 0.465944
12 2 0.503271 0.490041 0.469297
107 1 0.472623 0.506046 0.46537
103 2 0.487395 0.512358 0.460259
115 1 0.482328 0.526892 0.466566
111 1 0.498248 0.526237 0.45911
25 2 0.513811 0.514753 0.458281
88 2 0.512652 0.526256 0.468905
141 2 0.501907 0.508463 0.470565
123 1 0.528986 0.518468 0.466595
19 1 0.467367 0.46844 0.494556
50 1 0.48488 0.466121 0.472879
64 2 0.498992 0.46479 0.484538
70 1 0.481414 0.458846 0.489277
80 1 0.506883 0.454223 0.494044
20 2 0.515945 0.469114 0.48433
65 1 0.532908 0.467073 0.499009
113 1 0.458042 0.48467 0.4922
18 1 0.459874 0.494252 0.480242
13 2 0.469316 0.475218 0.479889
67 2 0.477271 0.489344 0.481157
32 2 0.490875 0.481671 0.476196
99 2 0.495706 0.497375 0.483054
81 2 0.482895 0.474957 0.489385
83 2 0.496393 0.471163 0.499026
133 2 0.491467 0.488475 0.497103
45 1 0.473123 0.492589 0.496316
85 2 0.505965 0.482969 0.483951
33 2 0.519808 0.485885 0.475603
8 2 0.52304 0.482817 0.491669
128 2 0.514129 0.497714 0.484645
21 1 0.537647 0.485128 0.48502
37 1 0.45796 0.514556 0.486451
91 2 0.470079 0.5217 0.494157
9 2 0.468877 0.517595 0.474086
62 1 0.458982 0.501018 0.496912
97 2 0.470866 0.505818 0.485008
104 2 0.483267 0.509139 0.477161
90 2 0.486378 0.520622 0.499773
122 2 0.483714 0.523886 0.484086
57 2 0.484196 0.505511 0.492629
68 2 0.498661 0.514101 0.485796
108 2 0.498208 0.524437 0.474108
7 2 0.528526 0.501634 0.476695
72 2 0.516441 0.512611 0.477913
55 2 0.516835 0.510429 0.496047
6 2 0.511332 0.524473 0.489688
15 2 0.50264 0.501284 0.497509
114 2 0.535927 0.500795 0.492571
63 1 0.540791 0.513414 0.477804
116 2 0.529505 0.516135 0.490006
110 2 0.543461 0.516079 0.497589
44 1 0.470333 0.533446 0.477973
11 2 0.496528 0.531786 0.491944
39 1 0.493045 0.549131 0.490953
95 2 0.479547 0.537212 0.493552
82 1 0.486213 0.539697 0.477614
69 2 0.504441 0.540612 0.474078
137 2 0.509453 0.544645 0.492949
51 1 0.526103 0.546593 0.491745
4 2 0.522334 0.531772 0.480234
140 1 0.536987 0.531524 0.487268
124 1 0.494735 0.454982 0.505561
38 1 0.480257 0.463508 0.505688
36 1 0.488409 0.455206 0.520561
127 1 0.508601 0.452486 0.512164
106 2 0.522364 0.461502 0.514301
118 2 0.50833 0.469419 0.51785
76 2 0.514121 0.46588 0.501164
134 1 0.447731 0.491838 0.504045
112 1 0.4615 0.479213 0.508327
130 1 0.464843 0.487854 0.525373
105 1 0.470555 0.470679 0.518536
92 2 0.47802 0.478822 0.505263
71 2 0.492274 0.471572 0.514138
129 2 0.482142 0.482279 0.523382
3 2 0.476797 0.493168 0.51252
52 2 0.497409 0.488386 0.512681
73 2 0.4899 0.496702 0.524405
96 2 0.499182 0.478875 0.52595
26 2 0.520183 0.480796 0.509782
93 2 0.507075 0.482978 0.500883
54 2 0.520703 0.496058 0.501143
94 2 0.517843 0.484933 0.524051
84 2 0.534587 0.485966 0.502365
66 2 0.529764 0.493528 0.514475
28 1 0.545775 0.4981 0.507668
35 2 0.534282 0.475157 0.517264
139 1 0.545701 0.486224 0.523074
132 2 0.46112 0.502126 0.515101
100 1 0.458473 0.516667 0.506379
61 1 0.467842 0.515702 0.520778
5 2 0.490179 0.50316 0.508535
24 2 0.475148 0.525917 0.511094
102 2 0.474585 0.509045 0.506523
14 2 0.485232 0.513565 0.519325
56 2 0.495843 0.524511 0.515632
59 1 0.474752 0.500556 0.528288
22 2 0.501552 0.51545 0.5037
58 2 0.510145 0.50207 0.5111
60 2 0.515098 0.517166 0.515543
126 2 0.519232 0.503111 0.5244
2 2 0.528443 0.509469 0.507615
10 2 0.528534 0.51577 0.524749
78 2 0.501831 0.50882 0.523295
125 2 0.523753 0.526645 0.500354
43 1 0.540136 0.504807 0.522393
138 1 0.539683 0.522253 0.514584
29 1 0.499829 0.548031 0.506795
120 1 0.487101 0.537364 0.508828
117 1 0.48152 0.529458 0.527532
101 1 0.520742 0.544967 0.507433
40 2 0.508734 0.533155 0.504782
89 1 0.508539 0.537021 0.519984
79 1 0.524979 0.531559 0.517547
16 1 0.538638 0.536667 0.504216
1 1 0.48514 0.467202 0.531747
46 1 0.516853 0.454628 0.529503
49 1 0.501119 0.459586 0.529648
27 1 0.523293 0.46838 0.530984
42 1 0.476591 0.483266 0.540725
77 1 0.482885 0.498866 0.541809
135 1 0.494718 0.484945 0.539925
131 2 0.505629 0.493833 0.530516
48 2 0.509583 0.47467 0.537386
121 1 0.519958 0.491211 0.540765
30 1 0.532031 0.481803 0.533844
87 1 0.496989 0.506537 0.541139
119 1 0.478299 0.516537 0.536801
23 1 0.493928 0.521534 0.535878
74 1 0.510236 0.524419 0.530193
31 1 0.51296 0.509366 0.53716
86 1 0.533009 0.501006 0.536212
ITEM: TIMESTEP
8855000
ITEM: NUMBER OF ATOMS
141
ITEM: BOX BOUNDS pp pp pp
0.0000000000000000e+00 1.4356000000000000e+02
0.0000000000000000e+00 1.4356000000000000e+02
0.0000000000000000e+00 1.4356000000000000e+02
ITEM: ATOMS id type xs ys zs
50 1 0.494029 0.475053 0.467254
98 1 0.507025 0.463651 0.468793
53 1 0.476769 0.47656 0.472156
41 1 0.471466 0.49346 0.468122
109 2 0.488672 0.490049 0.470874
17 1 0.482337 0.48338 0.457037
75 1 0.51686 0.472815 0.454689
47 1 0.500644 0.478127 0.452143
136 1 0.512533 0.491129 0.454316
33 2 0.525837 0.482355 0.464615
37 1 0.468371 0.512259 0.468492
107 1 0.48065 0.501306 0.457891
111 1 0.497031 0.496859 0.45855
25 2 0.515391 0.50699 0.461844
123 1 0.505483 0.522019 0.466731
72 2 0.516841 0.513159 0.476296
115 1 0.493488 0.535469 0.463955
4 2 0.518355 0.53071 0.475635
70 1 0.49244 0.461288 0.478672
124 1 0.504487 0.453647 0.491453
19 1 0.478739 0.458074 0.505848
13 2 0.478271 0.467232 0.49097
64 2 0.50945 0.467584 0.484356
80 1 0.520821 0.455953 0.492558
20 2 0.524615 0.468295 0.475939
65 1 0.533487 0.468893 0.493184
113 1 0.464528 0.471217 0.483268
45 1 0.462413 0.473363 0.498896
62 1 0.454967 0.498973 0.496354
18 1 0.459123 0.487883 0.483899
67 2 0.483251 0.507167 0.475643
32 2 0.489734 0.477327 0.483651
99 2 0.492591 0.496501 0.485602
81 2 0.476597 0.488744 0.484861
38 1 0.49448 0.467364 0.496031
133 2 0.487062 0.487769 0.497858
141 2 0.508459 0.493404 0.471307
85 2 0.504034 0.483418 0.486234
34 2 0.52622 0.497319 0.470669
12 2 0.510276 0.478199 0.470412
8 2 0.518875 0.486176 0.480906
76 2 0.517684 0.475324 0.495101
84 2 0.531598 0.484906 0.498769
15 2 0.500147 0.498116 0.500195
54 2 0.516752 0.492335 0.496551
21 1 0.536244 0.482835 0.479735
63 1 0.544302 0.49961 0.477002
28 1 0.543454 0.496469 0.491865
100 1 0.462932 0.525622 0.484452
97 2 0.466567 0.50298 0.48247
44 1 0.474207 0.528814 0.47255
103 2 0.488228 0.517877 0.463816
57 2 0.477663 0.502763 0.496726
91 2 0.467421 0.528691 0.501978
104 2 0.477689 0.518018 0.485764
90 2 0.484364 0.522613 0.504035
88 2 0.491494 0.524515 0.478494
68 2 0.493126 0.510721 0.492558
128 2 0.509767 0.500721 0.485609
108 2 0.499661 0.5079 0.473673
55 2 0.512105 0.50892 0.497416
6 2 0.505518 0.519188 0.485881
114 2 0.528328 0.498214 0.485481
116 2 0.523676 0.522223 0.488657
110 2 0.534514 0.523837 0.502438
7 2 0.532564 0.513429 0.476378
140 1 0.542156 0.515484 0.49216
9 2 0.477895 0.532829 0.491077
122 2 0.495845 0.532052 0.493862
95 2 0.48484 0.540584 0.504977
82 1 0.488998 0.541728 0.480887
69 2 0.50337 0.535105 0.478491
51 1 0.52498 0.537175 0.489545
137 2 0.508957 0.5413 0.491489
36 1 0.480499 0.465421 0.5211
127 1 0.494371 0.45782 0.510431
49 1 0.494734 0.466169 0.529305
46 1 0.509039 0.463741 0.519925
83 2 0.508656 0.465646 0.504724
106 2 0.526075 0.46556 0.510814
134 1 0.462332 0.484128 0.511961
105 1 0.474356 0.480779 0.520134
92 2 0.476958 0.474541 0.504769
71 2 0.492266 0.474087 0.513092
129 2 0.476672 0.496631 0.513297
3 2 0.468362 0.488952 0.497449
52 2 0.492618 0.491261 0.513226
96 2 0.48959 0.483634 0.52747
27 1 0.523252 0.471727 0.524637
118 2 0.506082 0.480221 0.518876
26 2 0.519661 0.480744 0.510574
93 2 0.505051 0.481996 0.502873
94 2 0.520233 0.490497 0.524275
131 2 0.505726 0.49458 0.528496
35 2 0.535528 0.47801 0.51529
139 1 0.546903 0.486048 0.507367
30 1 0.540695 0.494236 0.520517
66 2 0.528232 0.496849 0.51138
112 1 0.456654 0.503142 0.512406
132 2 0.462971 0.513884 0.495627
61 1 0.459255 0.517882 0.516679
24 2 0.474516 0.531983 0.516738
5 2 0.48797 0.50741 0.509902
102 2 0.472756 0.510959 0.509174
14 2 0.483652 0.516347 0.523944
56 2 0.492196 0.527796 0.518996
78 2 0.500671 0.507181 0.517488
22 2 0.500476 0.517328 0.505541
58 2 0.511037 0.497884 0.510651
60 2 0.520402 0.513256 0.511482
2 2 0.529021 0.507388 0.500179
40 2 0.508458 0.524543 0.52076
10 2 0.52673 0.506016 0.525306
43 1 0.544209 0.50508 0.506864
138 1 0.537229 0.517183 0.517316
39 1 0.495515 0.549731 0.496587
120 1 0.483348 0.544258 0.523609
29 1 0.499163 0.536627 0.532281
11 2 0.500751 0.53753 0.508295
125 2 0.513082 0.527451 0.50202
16 1 0.512199 0.548635 0.511289
79 1 0.523586 0.532742 0.512637
101 1 0.514664 0.539331 0.525213
130 1 0.469835 0.506255 0.526255
1 1 0.478807 0.472925 0.536086
42 1 0.475582 0.493142 0.535877
135 1 0.494045 0.478917 0.543914
77 1 0.490375 0.496526 0.542132
48 2 0.509191 0.474663 0.535356
121 1 0.523062 0.481229 0.538761
31 1 0.506955 0.489338 0.544834
117 1 0.484839 0.530499 0.53441
59 1 0.46692 0.525121 0.530087
73 2 0.489962 0.50225 0.526495
119 1 0.4779 0.510982 0.538797
89 1 0.495972 0.517636 0.534342
126 2 0.510658 0.511299 0.528099
74 1 0.524282 0.524499 0.52781
23 1 0.509597 0.525197 0.537685
87 1 0.504448 0.506602 0.543354
86 1 0.518841 0.499271 0.539706
ITEM: TIMESTEP
8860000
ITEM: NUMBER OF ATOMS
141
ITEM: BOX BOUNDS pp pp pp
0.0000000000000000e+00 1.4356000000000000e+02
0.0000000000000000e+00 1.4356000000000000e+02
0.0000000000000000e+00 1.4356000000000000e+02
ITEM: ATOMS id type xs ys zs
18 1 0.458672 0.49295 0.475208
17 1 0.484152 0.477651 0.463301
109 2 0.497684 0.485173 0.464151
37 1 0.484458 0.49448 0.463791
50 1 0.496041 0.464005 0.471111
47 1 0.514417 0.494014 0.460205
33 2 0.508473 0.474068 0.469405
136 1 0.540149 0.496412 0.46785
100 1 0.464265 0.514314 0.471639
107 1 0.487375 0.510662 0.458011
44 1 0.477865 0.522428 0.466866
111 1 0.512003 0.512147 0.450278
103 2 0.502354 0.519134 0.465976
25 2 0.519295 0.52133 0.465085
141 2 0.501336 0.503102 0.462215
7 2 0.525383 0.505978 0.461166
123 1 0.50924 0.534268 0.469878
70 1 0.491846 0.447769 0.491181
19 1 0.506326 0.453778 0.497702
45 1 0.47602 0.458529 0.493625
13 2 0.481192 0.465472 0.478545
38 1 0.494344 0.462661 0.488431
75 1 0.525307 0.468293 0.47525
124 1 0.507163 0.455505 0.481519
20 2 0.518794 0.464246 0.491276
53 1 0.457937 0.478005 0.484036
113 1 0.461373 0.495187 0.492047
32 2 0.487818 0.47852 0.482408
3 2 0.472478 0.476031 0.491677
41 1 0.4726 0.484892 0.474933
81 2 0.481134 0.490224 0.491888
108 2 0.490863 0.494218 0.479295
64 2 0.506871 0.472971 0.485375
85 2 0.500722 0.487598 0.490826
12 2 0.507864 0.492827 0.475101
8 2 0.520009 0.483191 0.482609
54 2 0.514032 0.497995 0.488577
114 2 0.525298 0.496679 0.475463
84 2 0.529268 0.495656 0.491914
76 2 0.516417 0.48298 0.499159
98 1 0.524875 0.4812 0.465501
21 1 0.538432 0.486895 0.481448
28 1 0.533053 0.4745 0.491375
62 1 0.464141 0.511021 0.48778
95 2 0.465885 0.526319 0.496583
97 2 0.473432 0.501063 0.478048
99 2 0.484532 0.507421 0.490254
67 2 0.485467 0.509492 0.47357
88 2 0.49271 0.524147 0.479011
68 2 0.496715 0.522319 0.496428
9 2 0.476066 0.521275 0.485115
6 2 0.498615 0.50849 0.482282
122 2 0.480731 0.533493 0.493343
128 2 0.51287 0.508146 0.472199
15 2 0.49864 0.504153 0.499283
72 2 0.509632 0.523575 0.482215
116 2 0.522598 0.525504 0.495494
55 2 0.511873 0.512976 0.494715
2 2 0.524261 0.511764 0.485595
51 1 0.527267 0.529099 0.480848
34 2 0.535187 0.511823 0.474651
63 1 0.542086 0.503627 0.487841
140 1 0.540263 0.521647 0.489012
115 1 0.484625 0.537335 0.47593
82 1 0.469494 0.534367 0.478352
11 2 0.491348 0.540368 0.502439
4 2 0.515853 0.539239 0.486219
69 2 0.498643 0.538023 0.486579
16 1 0.524631 0.545218 0.4996
36 1 0.475592 0.468151 0.506942
127 1 0.488998 0.456488 0.504144
49 1 0.483605 0.46509 0.521599
80 1 0.520592 0.462394 0.508372
46 1 0.5055 0.458777 0.513966
65 1 0.515518 0.461682 0.527007
105 1 0.459871 0.475823 0.501468
134 1 0.458425 0.492576 0.509546
129 2 0.473658 0.486354 0.50454
133 2 0.487153 0.493273 0.508962
92 2 0.488252 0.477777 0.500286
52 2 0.481648 0.481665 0.521368
96 2 0.464767 0.478713 0.517717
71 2 0.494708 0.473359 0.512689
102 2 0.472943 0.496032 0.518546
93 2 0.502589 0.4868 0.505874
83 2 0.504802 0.470334 0.500676
106 2 0.512177 0.476402 0.516566
26 2 0.515106 0.491927 0.517005
35 2 0.530664 0.474472 0.508719
27 1 0.526628 0.481573 0.523486
118 2 0.500524 0.485387 0.526572
58 2 0.515141 0.501021 0.504443
43 1 0.543135 0.488306 0.499281
139 1 0.543933 0.487428 0.515789
66 2 0.528915 0.490264 0.507664
30 1 0.536396 0.496046 0.529777
132 2 0.458146 0.511059 0.502197
112 1 0.458866 0.506245 0.520287
91 2 0.46814 0.520331 0.512046
57 2 0.471791 0.504084 0.502899
104 2 0.480582 0.519772 0.50061
73 2 0.487262 0.497786 0.52703
5 2 0.488384 0.507561 0.511065
14 2 0.494854 0.512 0.525025
24 2 0.478757 0.510274 0.524527
56 2 0.490021 0.526223 0.511612
120 1 0.479614 0.526775 0.524527
137 2 0.508364 0.530722 0.504275
78 2 0.502282 0.500779 0.517606
22 2 0.503362 0.515415 0.510196
60 2 0.527617 0.503778 0.516622
125 2 0.519561 0.517704 0.509896
126 2 0.512563 0.510857 0.523804
23 1 0.524774 0.528049 0.523828
10 2 0.537796 0.516208 0.513517
74 1 0.533178 0.532026 0.507258
110 2 0.530955 0.51072 0.49872
138 1 0.543937 0.503565 0.506307
90 2 0.474115 0.534798 0.50798
39 1 0.485271 0.541119 0.520599
29 1 0.500804 0.542173 0.516412
117 1 0.495086 0.533266 0.531618
40 2 0.50681 0.527358 0.519737
101 1 0.507002 0.546894 0.499059
79 1 0.519347 0.539975 0.514159
130 1 0.457868 0.49231 0.528135
131 2 0.502361 0.504774 0.537122
42 1 0.471437 0.482382 0.533949
1 1 0.488135 0.477691 0.536869
86 1 0.490241 0.493315 0.542529
48 2 0.50029 0.47005 0.527
31 1 0.505449 0.487147 0.54389
121 1 0.514788 0.47885 0.533857
94 2 0.520221 0.496006 0.532699
61 1 0.472762 0.499767 0.53569
59 1 0.466509 0.516989 0.533339
135 1 0.48368 0.510573 0.540512
119 1 0.498987 0.519508 0.541506
77 1 0.51644 0.506112 0.544613
87 1 0.527728 0.513038 0.532111
89 1 0.513273 0.522249 0.536515
ITEM: TIMESTEP
8865000
ITEM: NUMBER OF ATOMS
141
ITEM: BOX BOUNDS pp pp pp
0.0000000000000000e+00 1.4356000000000000e+02
0.0000000000000000e+00 1.4356000000000000e+02
0.0000000000000000e+00 1.4356000000000000e+02
ITEM: ATOMS id type xs ys zs
50 1 0.502154 0.465629 0.46485
41 1 0.480742 0.477446 0.458468
109 2 0.496772 0.481949 0.462035
47 1 0.516217 0.496246 0.455781
33 2 0.512421 0.481527 0.46502
98 1 0.529041 0.506284 0.463352
75 1 0.528378 0.492863 0.47243
37 1 0.473486 0.510409 0.467692
107 1 0.484051 0.510932 0.453343
82 1 0.480635 0.525597 0.468957
123 1 0.495296 0.523142 0.458729
141 2 0.500717 0.499621 0.458794
44 1 0.50814 0.530004 0.464527
111 1 0.512847 0.513306 0.456735
115 1 0.494911 0.534926 0.471125
38 1 0.486176 0.466412 0.470347
70 1 0.478803 0.460988 0.484557
46 1 0.490755 0.456642 0.499095
124 1 0.515826 0.467481 0.476382
19 1 0.501868 0.458097 0.485293
113 1 0.462839 0.487772 0.482959
105 1 0.463925 0.471861 0.491734
97 2 0.473364 0.49914 0.494317
32 2 0.481931 0.483459 0.476008
53 1 0.469601 0.49244 0.467682
17 1 0.470183 0.47076 0.471909
13 2 0.489334 0.472509 0.487065
81 2 0.476659 0.48295 0.492004
108 2 0.48618 0.494582 0.464592
85 2 0.49907 0.494862 0.475848
99 2 0.479322 0.498625 0.479163
20 2 0.5113 0.471496 0.492116
64 2 0.501447 0.4777 0.478769
12 2 0.512293 0.501958 0.472168
8 2 0.515931 0.486243 0.481615
84 2 0.522449 0.48184 0.495665
83 2 0.505322 0.488016 0.49559
2 2 0.531816 0.496006 0.491787
136 1 0.543831 0.489482 0.48162
21 1 0.530917 0.476638 0.47968
63 1 0.538132 0.478871 0.49385
100 1 0.466301 0.521145 0.476245
18 1 0.464194 0.504373 0.480746
95 2 0.456506 0.517506 0.495344
122 2 0.470364 0.531193 0.49112
57 2 0.471957 0.517312 0.499603
67 2 0.488772 0.509687 0.473548
88 2 0.486043 0.538594 0.487181
9 2 0.480763 0.513802 0.485718
6 2 0.500355 0.505943 0.488082
4 2 0.494557 0.523742 0.483377
68 2 0.486454 0.524834 0.497324
54 2 0.514832 0.500946 0.492127
25 2 0.5203 0.520798 0.471604
128 2 0.504312 0.515753 0.473648
114 2 0.528372 0.505757 0.479851
72 2 0.513923 0.517517 0.485419
137 2 0.501668 0.518796 0.497874
7 2 0.543804 0.505664 0.485617
34 2 0.54623 0.494915 0.498889
140 1 0.529518 0.516953 0.493724
74 1 0.544023 0.514485 0.500856
69 2 0.502445 0.535314 0.495142
103 2 0.508863 0.533632 0.480227
51 1 0.52516 0.532789 0.481306
101 1 0.51634 0.544941 0.491452
16 1 0.537548 0.520205 0.476958
45 1 0.476084 0.457889 0.507432
127 1 0.492695 0.461931 0.513322
92 2 0.479738 0.471156 0.500042
36 1 0.478921 0.464625 0.524258
49 1 0.50121 0.465344 0.527235
80 1 0.507774 0.458318 0.501514
28 1 0.522105 0.462217 0.50917
65 1 0.517183 0.464006 0.52436
48 2 0.508043 0.470807 0.512278
43 1 0.529817 0.465049 0.493668
96 2 0.464125 0.484687 0.501968
134 1 0.460315 0.487137 0.517485
130 1 0.468864 0.476846 0.53279
3 2 0.473513 0.476382 0.514221
129 2 0.485261 0.488924 0.505361
133 2 0.489099 0.492451 0.489849
71 2 0.493516 0.478353 0.519081
102 2 0.481274 0.489846 0.521564
73 2 0.491999 0.502367 0.515246
106 2 0.495757 0.476971 0.501504
15 2 0.501513 0.501746 0.502883
76 2 0.519505 0.480854 0.511466
93 2 0.502865 0.4887 0.513114
26 2 0.516791 0.493875 0.525151
58 2 0.516667 0.496809 0.509039
35 2 0.533858 0.471585 0.508998
118 2 0.511337 0.479997 0.527054
66 2 0.531764 0.490147 0.507171
27 1 0.528778 0.479828 0.52571
139 1 0.545185 0.487474 0.520397
62 1 0.457187 0.501707 0.501162
132 2 0.471835 0.497201 0.509547
91 2 0.463008 0.512004 0.512063
59 1 0.45317 0.505482 0.525738
120 1 0.467025 0.518589 0.527538
5 2 0.485154 0.50882 0.501866
24 2 0.469685 0.501654 0.526552
56 2 0.478546 0.511008 0.51649
22 2 0.49251 0.518438 0.512157
40 2 0.501357 0.533119 0.526847
14 2 0.497313 0.517266 0.526599
117 1 0.481062 0.518857 0.535556
116 2 0.517634 0.529733 0.498762
55 2 0.515299 0.512366 0.503259
78 2 0.508022 0.507501 0.517221
60 2 0.524313 0.511936 0.518337
125 2 0.525917 0.52659 0.51191
126 2 0.508764 0.524473 0.51465
110 2 0.530476 0.506163 0.505266
23 1 0.535062 0.533662 0.494819
138 1 0.54522 0.503671 0.514232
10 2 0.532701 0.498934 0.52367
87 1 0.540042 0.521176 0.517088
90 2 0.468796 0.52741 0.510938
11 2 0.494297 0.534092 0.510407
104 2 0.478163 0.538468 0.504912
39 1 0.481636 0.528816 0.521439
29 1 0.491296 0.548045 0.500245
79 1 0.511572 0.541223 0.51079
89 1 0.519972 0.535687 0.524973
112 1 0.47608 0.493117 0.538882
52 2 0.486219 0.478833 0.533651
131 2 0.498105 0.491524 0.528501
1 1 0.50141 0.480358 0.541023
121 1 0.513683 0.491685 0.541084
94 2 0.504424 0.505021 0.5358
30 1 0.52339 0.505276 0.536081
61 1 0.486955 0.503119 0.531448
42 1 0.494066 0.497936 0.546986
86 1 0.479552 0.507162 0.54736
135 1 0.463834 0.511808 0.543226
31 1 0.514293 0.518867 0.531026
119 1 0.495043 0.514904 0.544484
77 1 0.530982 0.521631 0.530961
ITEM: TIMESTEP
8870000
ITEM: NUMBER OF ATOMS
141
ITEM: BOX BOUNDS pp pp pp
0.0000000000000000e+00 1.4356000000000000e+02
0.0000000000000000e+00 1.4356000000000000e+02
0.0000000000000000e+00 1.4356000000000000e+02
ITEM: ATOMS id type xs ys zs
50 1 0.4853 0.4757 0.460491
41 1 0.472488 0.484402 0.466279
108 2 0.495836 0.489028 0.457141
109 2 0.501886 0.500918 0.466939
47 1 0.514316 0.488747 0.459876
98 1 0.504892 0.504095 0.448494
124 1 0.530109 0.484317 0.473275
111 1 0.493955 0.514856 0.45745
53 1 0.469337 0.503093 0.466346
37 1 0.477476 0.532264 0.471234
107 1 0.47782 0.516903 0.462386
25 2 0.511197 0.513206 0.463863
128 2 0.493774 0.525576 0.471082
82 1 0.49205 0.541532 0.473548
123 1 0.509441 0.53032 0.468749
46 1 0.476233 0.462401 0.493116
19 1 0.499229 0.464995 0.466789
92 2 0.487684 0.453321 0.504771
127 1 0.493241 0.454458 0.487251
20 2 0.518962 0.461755 0.489607
33 2 0.517422 0.469207 0.472228
106 2 0.504034 0.468644 0.48316
70 1 0.4703 0.473099 0.477711
105 1 0.464672 0.475368 0.492944
17 1 0.461267 0.486144 0.479626
97 2 0.468235 0.491518 0.495355
38 1 0.487296 0.467629 0.478466
32 2 0.487821 0.484806 0.473231
13 2 0.490315 0.468527 0.495589
81 2 0.481109 0.481237 0.488091
5 2 0.486882 0.495712 0.495936
133 2 0.49883 0.484735 0.487792
64 2 0.502252 0.482882 0.471634
85 2 0.509356 0.497863 0.483712
8 2 0.514756 0.481059 0.483776
2 2 0.528784 0.489101 0.489151
84 2 0.522625 0.476036 0.497299
136 1 0.534544 0.499081 0.477835
43 1 0.533158 0.470402 0.483987
21 1 0.542292 0.477568 0.49448
34 2 0.544005 0.493683 0.492161
113 1 0.452144 0.488674 0.493757
18 1 0.457722 0.502819 0.482826
95 2 0.475273 0.506441 0.49072
141 2 0.486774 0.499591 0.460673
99 2 0.47604 0.494229 0.48126
67 2 0.484096 0.510577 0.475567
9 2 0.491066 0.514168 0.49039
4 2 0.503821 0.529029 0.484781
88 2 0.487104 0.529277 0.487396
6 2 0.49247 0.499245 0.480991
69 2 0.498852 0.528138 0.499754
75 1 0.519199 0.498094 0.470676
54 2 0.52345 0.504036 0.490076
12 2 0.502835 0.51316 0.477733
114 2 0.518244 0.516307 0.479473
72 2 0.50906 0.514982 0.492579
103 2 0.520349 0.527751 0.489899
116 2 0.525987 0.517901 0.499931
7 2 0.537024 0.514844 0.486976
16 1 0.529936 0.513529 0.468253
100 1 0.465441 0.517165 0.475902
104 2 0.472089 0.52894 0.487577
29 1 0.478951 0.543712 0.482556
115 1 0.499051 0.544626 0.491644
44 1 0.52876 0.530264 0.477069
51 1 0.51508 0.542582 0.481052
101 1 0.513314 0.540339 0.499422
79 1 0.530211 0.54303 0.490081
140 1 0.541201 0.528829 0.498026
45 1 0.472974 0.464013 0.515771
36 1 0.487698 0.45602 0.523495
71 2 0.492984 0.469064 0.511488
80 1 0.521107 0.457782 0.505847
65 1 0.502673 0.468171 0.534568
49 1 0.504406 0.457494 0.500583
28 1 0.504579 0.45884 0.517539
35 2 0.518173 0.466697 0.526743
96 2 0.478801 0.477371 0.50563
3 2 0.470415 0.481559 0.525511
62 1 0.459199 0.480876 0.509419
132 2 0.472485 0.492383 0.513956
129 2 0.505064 0.493709 0.511362
102 2 0.493407 0.485009 0.503473
52 2 0.486957 0.483088 0.518365
73 2 0.490274 0.498998 0.514188
24 2 0.481418 0.493916 0.529945
83 2 0.507231 0.473597 0.498782
93 2 0.520659 0.489313 0.515404
48 2 0.503678 0.478336 0.517913
76 2 0.517443 0.474406 0.511534
58 2 0.515344 0.490438 0.498437
15 2 0.501959 0.500223 0.497726
131 2 0.502304 0.494745 0.527952
63 1 0.534075 0.469977 0.509407
66 2 0.532705 0.487355 0.505083
138 1 0.529452 0.478843 0.524423
122 2 0.460222 0.515534 0.493734
59 1 0.458004 0.502119 0.517497
91 2 0.460111 0.502543 0.50146
68 2 0.480723 0.521329 0.500831
90 2 0.464969 0.515025 0.510337
137 2 0.495868 0.511684 0.506064
57 2 0.478367 0.507176 0.507546
56 2 0.473914 0.506565 0.523339
22 2 0.487282 0.519358 0.517918
26 2 0.51807 0.501891 0.525095
14 2 0.501488 0.527398 0.520761
55 2 0.51739 0.50444 0.508727
78 2 0.502808 0.509073 0.519584
60 2 0.517762 0.51953 0.521205
126 2 0.512607 0.525805 0.507954
10 2 0.532974 0.498738 0.518919
110 2 0.533349 0.503284 0.50358
125 2 0.532333 0.515002 0.514799
74 1 0.547436 0.491928 0.507959
23 1 0.544422 0.51269 0.503147
39 1 0.473177 0.528606 0.513424
11 2 0.486396 0.537498 0.501672
117 1 0.485437 0.53679 0.522325
40 2 0.49938 0.54257 0.511677
89 1 0.527948 0.532962 0.508381
77 1 0.531331 0.529936 0.5248
31 1 0.515264 0.535667 0.523046
134 1 0.463458 0.496655 0.531426
130 1 0.485952 0.47147 0.532916
112 1 0.490624 0.496439 0.543328
118 2 0.513861 0.48328 0.531771
1 1 0.498085 0.482473 0.538947
121 1 0.508236 0.493356 0.544796
139 1 0.529712 0.492168 0.533587
120 1 0.46093 0.514499 0.533406
61 1 0.490705 0.508218 0.530938
42 1 0.495303 0.511958 0.546489
135 1 0.477097 0.520388 0.530759
86 1 0.477831 0.507811 0.541457
119 1 0.493757 0.525259 0.535982
87 1 0.531825 0.511703 0.531196
27 1 0.521945 0.503059 0.543325
94 2 0.508467 0.512063 0.53461
30 1 0.519961 0.524194 0.538357
ITEM: TIMESTEP
8875000
ITEM: NUMBER OF ATOMS
141
ITEM: BOX BOUNDS pp pp pp
0.0000000000000000e+00 1.4356000000000000e+02
0.0000000000000000e+00 1.4356000000000000e+02
0.0000000000000000e+00 1.4356000000000000e+02
ITEM: ATOMS id type xs ys zs
38 1 0.488282 0.474106 0.47077
50 1 0.475626 0.486713 0.46451
108 2 0.49437 0.488619 0.462482
98 1 0.498095 0.501943 0.446856
141 2 0.484338 0.499574 0.456219
109 2 0.498064 0.502961 0.467944
70 1 0.466664 0.501075 0.460765
47 1 0.507779 0.486918 0.453902
33 2 0.503602 0.473813 0.465931
75 1 0.526053 0.496127 0.46287
124 1 0.521608 0.479944 0.458
111 1 0.494357 0.516392 0.453595
107 1 0.47781 0.516523 0.457002
128 2 0.490805 0.524187 0.468001
25 2 0.511588 0.501942 0.457739
123 1 0.511461 0.520088 0.463991
16 1 0.525814 0.512962 0.462643
12 2 0.501958 0.516672 0.475691
37 1 0.476745 0.531457 0.472321
51 1 0.524434 0.528176 0.469038
105 1 0.470717 0.468057 0.492857
19 1 0.496884 0.461346 0.475185
127 1 0.487751 0.471767 0.489077
20 2 0.516277 0.462164 0.499079
106 2 0.510317 0.464904 0.484527
49 1 0.500075 0.454537 0.492479
43 1 0.519385 0.468484 0.470988
17 1 0.461874 0.488526 0.474479
113 1 0.455238 0.489527 0.490249
97 2 0.472404 0.486109 0.49467
32 2 0.487693 0.492914 0.47815
81 2 0.476355 0.479275 0.48069
5 2 0.487963 0.489153 0.495271
133 2 0.500756 0.478859 0.481116
13 2 0.501709 0.470288 0.497388
6 2 0.502042 0.49536 0.483385
64 2 0.51231 0.489458 0.471529
8 2 0.516673 0.482861 0.486587
15 2 0.507078 0.490569 0.497798
2 2 0.525974 0.470303 0.487857
54 2 0.518914 0.500242 0.490143
136 1 0.53136 0.481824 0.476264
21 1 0.545525 0.496713 0.506378
41 1 0.468308 0.51498 0.472247
53 1 0.459229 0.525618 0.48126
18 1 0.457143 0.505085 0.477811
100 1 0.463723 0.527716 0.501243
122 2 0.458671 0.507766 0.496827
99 2 0.472655 0.500302 0.482639
95 2 0.474124 0.515667 0.48758
67 2 0.484028 0.509129 0.472468
9 2 0.489488 0.505879 0.488478
88 2 0.486931 0.52216 0.484501
68 2 0.479879 0.519969 0.500766
85 2 0.51469 0.505694 0.473457
4 2 0.502352 0.527627 0.488525
114 2 0.520951 0.519557 0.483854
72 2 0.506649 0.510665 0.489205
116 2 0.527792 0.51095 0.503383
34 2 0.53433 0.496491 0.491334
7 2 0.529395 0.503138 0.477857
23 1 0.536343 0.514914 0.49054
44 1 0.537499 0.519515 0.475203
140 1 0.531202 0.534763 0.485009
104 2 0.473267 0.530864 0.488302
29 1 0.494881 0.53833 0.478867
11 2 0.489646 0.532647 0.49763
82 1 0.512069 0.534561 0.475271
115 1 0.502787 0.544138 0.493069
79 1 0.516245 0.535519 0.493044
45 1 0.468046 0.462514 0.508978
46 1 0.484382 0.458831 0.497252
92 2 0.492777 0.462935 0.509201
36 1 0.48151 0.461851 0.520498
65 1 0.498343 0.462707 0.528161
80 1 0.530752 0.466685 0.505145
28 1 0.508008 0.452948 0.510614
35 2 0.517506 0.462358 0.522325
62 1 0.462995 0.477313 0.511067
59 1 0.461688 0.490449 0.522528
3 2 0.471534 0.474722 0.523918
71 2 0.487188 0.477703 0.523048
96 2 0.480391 0.473965 0.50511
132 2 0.478839 0.488923 0.512036
102 2 0.495193 0.482554 0.508848
73 2 0.492626 0.494663 0.521516
24 2 0.477365 0.491215 0.529838
52 2 0.502794 0.481618 0.526281
83 2 0.517329 0.480437 0.506236
129 2 0.508419 0.49204 0.514314
48 2 0.5058 0.469092 0.513704
76 2 0.522296 0.479737 0.521175
58 2 0.524148 0.494357 0.504323
84 2 0.53115 0.481085 0.49876
63 1 0.537067 0.483256 0.515054
138 1 0.53452 0.467424 0.521383
91 2 0.463577 0.494183 0.505839
90 2 0.467226 0.512705 0.508656
69 2 0.496278 0.516338 0.501769
137 2 0.495477 0.500172 0.504296
57 2 0.478533 0.502847 0.500969
56 2 0.473293 0.50237 0.518575
22 2 0.487146 0.510849 0.514012
135 1 0.474883 0.52259 0.523218
14 2 0.490015 0.528215 0.513904
103 2 0.514187 0.519597 0.499929
93 2 0.51832 0.500669 0.521972
55 2 0.510429 0.505382 0.504771
78 2 0.503154 0.507148 0.518989
126 2 0.506252 0.522738 0.516204
125 2 0.520565 0.516333 0.516485
110 2 0.531123 0.525756 0.500195
31 1 0.519841 0.530421 0.527868
66 2 0.534977 0.500841 0.517753
74 1 0.542324 0.515956 0.50742
89 1 0.535676 0.524443 0.518002
39 1 0.475267 0.534693 0.51074
117 1 0.490259 0.545002 0.510628
119 1 0.505381 0.5393 0.522972
101 1 0.521849 0.534112 0.511266
40 2 0.505369 0.534546 0.505714
130 1 0.506318 0.473185 0.540374
120 1 0.473074 0.508541 0.533993
134 1 0.4823 0.465813 0.537772
1 1 0.493762 0.483464 0.53978
112 1 0.489164 0.500338 0.547597
26 2 0.503 0.499655 0.53259
118 2 0.514987 0.488194 0.536544
121 1 0.522446 0.471422 0.53722
27 1 0.506629 0.499335 0.550293
139 1 0.529655 0.491152 0.531869
61 1 0.495482 0.524174 0.528554
131 2 0.488932 0.506941 0.530252
86 1 0.482975 0.520265 0.539697
60 2 0.511526 0.513094 0.532375
10 2 0.529342 0.510997 0.530703
87 1 0.520593 0.503932 0.542004
94 2 0.498383 0.51406 0.543175
77 1 0.520988 0.522538 0.543951
30 1 0.505136 0.528506 0.539362
42 1 0.485177 0.534385 0.530659
ITEM: TIMESTEP
8880000
ITEM: NUMBER OF ATOMS
141
ITEM: BOX BOUNDS pp pp pp
0.0000000000000000e+00 1.4356000000000000e+02
0.0000000000000000e+00 1.4356000000000000e+02
0.0000000000000000e+00 1.4356000000000000e+02
ITEM: ATOMS id type xs ys zs
70 1 0.474489 0.492842 0.46819
38 1 0.474545 0.476916 0.474368
50 1 0.491342 0.472131 0.468037
17 1 0.487435 0.486132 0.461364
108 2 0.508515 0.472932 0.468798
47 1 0.505272 0.492522 0.455427
136 1 0.523654 0.482004 0.462791
2 2 0.530222 0.494022 0.471971
98 1 0.490259 0.503966 0.45702
141 2 0.491382 0.518501 0.467709
107 1 0.475625 0.509014 0.465545
75 1 0.518393 0.501954 0.461503
25 2 0.506846 0.512111 0.457637
16 1 0.52459 0.518662 0.463018
41 1 0.482258 0.534266 0.468451
111 1 0.501946 0.533959 0.470246
123 1 0.518649 0.533349 0.473139
105 1 0.465606 0.468794 0.506068
127 1 0.480848 0.462036 0.493132
19 1 0.494631 0.460643 0.481951
49 1 0.497167 0.453037 0.497399
13 2 0.498787 0.47016 0.497233
124 1 0.511277 0.461311 0.483069
106 2 0.51606 0.45722 0.500803
43 1 0.528156 0.463812 0.489457
113 1 0.460748 0.487866 0.478759
133 2 0.487226 0.475851 0.485213
97 2 0.470201 0.487293 0.498854
32 2 0.494535 0.488586 0.476063
81 2 0.467447 0.474364 0.489979
5 2 0.494309 0.486164 0.495084
99 2 0.477832 0.489889 0.486789
64 2 0.51022 0.488508 0.473854
33 2 0.504472 0.478772 0.484277
6 2 0.504061 0.497357 0.486965
8 2 0.522092 0.476498 0.478785
15 2 0.510139 0.487542 0.50011
54 2 0.520941 0.489596 0.488534
83 2 0.51669 0.472346 0.497418
80 1 0.539438 0.493879 0.487334
58 2 0.532088 0.480211 0.493226