ITEM: TIMESTEP
3900000
ITEM: NUMBER OF ATOMS
141
ITEM: BOX BOUNDS pp pp pp
0.0000000000000000e+00 1.4356000000000000e+02
0.0000000000000000e+00 1.4356000000000000e+02
0.0000000000000000e+00 1.4356000000000000e+02
ITEM: ATOMS id type xs ys zs
29 1 0.478277 0.474106 0.468109
127 1 0.472035 0.490936 0.464104
37 1 0.490233 0.487426 0.467505
134 1 0.504994 0.494043 0.454779
70 1 0.504139 0.479006 0.462332
19 1 0.519072 0.484626 0.464815
139 1 0.534605 0.490709 0.470356
82 1 0.4653 0.507361 0.464856
21 1 0.486575 0.500544 0.455427
2 2 0.482628 0.51503 0.461715
96 2 0.49428 0.503523 0.470547
121 1 0.514515 0.508424 0.459875
138 1 0.500435 0.516061 0.460636
75 1 0.514182 0.526255 0.463122
47 1 0.530447 0.51644 0.46693
80 1 0.493737 0.530619 0.468248
135 1 0.48919 0.459615 0.493519
74 1 0.483855 0.459941 0.477631
53 1 0.500444 0.455179 0.480339
84 2 0.507002 0.454606 0.499573
56 2 0.511123 0.465088 0.471786
101 1 0.515441 0.455481 0.484915
92 2 0.503075 0.46815 0.488618
112 1 0.530136 0.460159 0.493529
86 1 0.466664 0.481952 0.477161
68 2 0.461354 0.499081 0.478339
123 1 0.463922 0.476344 0.493181
122 2 0.467412 0.494695 0.493835
57 2 0.48059 0.490281 0.479653
126 2 0.494275 0.473341 0.475277
6 2 0.479283 0.47403 0.486407
81 2 0.496846 0.490053 0.485964
90 2 0.490186 0.478499 0.4971
94 2 0.483323 0.495282 0.495524
55 2 0.506642 0.495553 0.471982
110 2 0.509443 0.481198 0.479031
72 2 0.518203 0.473257 0.495835
69 2 0.511122 0.497963 0.488087
22 2 0.523367 0.486986 0.484914
43 1 0.525831 0.471849 0.480057
141 2 0.507175 0.484313 0.499052
40 2 0.542147 0.489536 0.485636
118 2 0.535314 0.478688 0.493473
24 2 0.530311 0.499621 0.489456
117 1 0.463165 0.525585 0.494849
107 1 0.461862 0.514258 0.484479
105 1 0.470805 0.52325 0.471816
33 2 0.478536 0.504881 0.47367
26 2 0.489648 0.518795 0.478277
114 2 0.476495 0.508357 0.490551
102 2 0.493006 0.522105 0.495179
91 2 0.492294 0.505751 0.48664
60 2 0.477965 0.526582 0.487537
97 2 0.502932 0.527172 0.483003
73 2 0.521819 0.501799 0.47386
116 2 0.509065 0.512445 0.47586
15 2 0.506104 0.514275 0.492298
8 2 0.523108 0.511846 0.486428
99 2 0.520247 0.526222 0.479963
62 1 0.541953 0.505955 0.478808
20 2 0.536493 0.522369 0.484573
34 2 0.542685 0.504865 0.495611
98 1 0.480674 0.536687 0.476225
23 1 0.47589 0.539258 0.499191
52 2 0.491145 0.537687 0.49119
115 1 0.496974 0.547186 0.477906
51 1 0.510345 0.539225 0.47399
133 2 0.51348 0.537965 0.490809
46 1 0.529396 0.534824 0.495642
124 1 0.490692 0.455733 0.511352
16 1 0.494663 0.465964 0.526844
49 1 0.477738 0.464084 0.519536
77 1 0.475362 0.466777 0.50145
25 2 0.504954 0.470301 0.506504
130 1 0.520501 0.461661 0.509695
119 1 0.505737 0.452975 0.518155
27 1 0.511398 0.465936 0.524067
39 1 0.4598 0.489137 0.505955
89 1 0.463491 0.472184 0.515363
113 1 0.462723 0.492496 0.524425
64 2 0.476132 0.483324 0.502897
54 2 0.489179 0.473208 0.512447
9 2 0.490839 0.489956 0.509584
12 2 0.475387 0.481954 0.520335
4 2 0.490095 0.486186 0.527368
3 2 0.479575 0.497387 0.522777
18 1 0.528902 0.471004 0.523665
76 2 0.518767 0.478115 0.511085
88 2 0.503758 0.481298 0.518689
104 2 0.519419 0.483284 0.526213
67 2 0.509868 0.496335 0.512114
125 2 0.523288 0.490037 0.503366
108 2 0.524258 0.49986 0.520862
28 1 0.53425 0.471158 0.506909
41 1 0.546399 0.489706 0.501718
109 2 0.534832 0.485939 0.51527
111 1 0.461395 0.508146 0.522161
100 1 0.460235 0.522709 0.512404
65 1 0.460189 0.510046 0.503118
103 2 0.47704 0.521089 0.503123
58 2 0.475247 0.514465 0.518179
10 2 0.473622 0.501059 0.509277
71 2 0.487776 0.50966 0.506649
66 2 0.489938 0.516156 0.527037
128 2 0.495187 0.502284 0.518648
35 2 0.491356 0.524696 0.51288
93 2 0.500043 0.50103 0.500886
137 2 0.515529 0.52574 0.502376
132 2 0.5047 0.513605 0.50932
85 2 0.518938 0.505681 0.500808
5 2 0.505489 0.513031 0.52586
131 2 0.521997 0.515306 0.514746
129 2 0.509042 0.528386 0.51749
136 1 0.520818 0.526633 0.528895
11 2 0.530514 0.517842 0.500791
120 1 0.541466 0.500601 0.525768
13 2 0.535629 0.502171 0.509681
1 1 0.530507 0.512159 0.528553
50 1 0.540688 0.517081 0.514672
32 2 0.475191 0.532027 0.517815
36 1 0.488196 0.532958 0.5281
44 1 0.487047 0.542355 0.51106
106 2 0.5002 0.533182 0.503184
83 2 0.500726 0.548424 0.500484
87 1 0.500877 0.54194 0.521325
45 1 0.515065 0.543512 0.509194
48 2 0.530123 0.529739 0.511285
31 1 0.48324 0.473713 0.535264
42 1 0.493986 0.48545 0.544451
17 1 0.475913 0.489168 0.538094
7 2 0.521906 0.498057 0.536508
14 2 0.504376 0.475755 0.535893
78 2 0.506816 0.492819 0.529824
140 1 0.476629 0.507262 0.536126
95 2 0.493396 0.502106 0.534071
30 1 0.471113 0.522529 0.53184
38 1 0.49644 0.515675 0.542912
61 1 0.488736 0.500929 0.549926
79 1 0.502709 0.527547 0.532512
63 1 0.505924 0.500122 0.545472
59 1 0.515184 0.514414 0.539212
ITEM: TIMESTEP
3905000
ITEM: NUMBER OF ATOMS
141
ITEM: BOX BOUNDS pp pp pp
0.0000000000000000e+00 1.4356000000000000e+02
0.0000000000000000e+00 1.4356000000000000e+02
0.0000000000000000e+00 1.4356000000000000e+02
ITEM: ATOMS id type xs ys zs
29 1 0.472192 0.48379 0.468848
127 1 0.469987 0.499295 0.464851
21 1 0.484868 0.486119 0.457633
37 1 0.499082 0.474598 0.467429
134 1 0.500924 0.488022 0.458455
19 1 0.515386 0.477936 0.46189
73 2 0.519687 0.493846 0.473538
2 2 0.495994 0.503808 0.453077
105 1 0.473908 0.517194 0.465613
80 1 0.480062 0.507 0.451666
98 1 0.491404 0.520998 0.460889
96 2 0.505718 0.502999 0.467294
138 1 0.516136 0.494961 0.455663
75 1 0.507988 0.516144 0.455734
47 1 0.518804 0.529181 0.46886
121 1 0.535968 0.502692 0.474385
51 1 0.500896 0.533895 0.467834
135 1 0.477708 0.46121 0.486501
53 1 0.496767 0.459579 0.474241
84 2 0.494631 0.460241 0.492714
70 1 0.514348 0.464604 0.471425
56 2 0.510372 0.465193 0.489348
112 1 0.527454 0.466125 0.485849
86 1 0.461429 0.492997 0.478397
122 2 0.466583 0.502182 0.492903
123 1 0.458462 0.48572 0.494082
74 1 0.466072 0.474417 0.483548
57 2 0.475115 0.48707 0.487002
126 2 0.48289 0.474494 0.477098
6 2 0.486143 0.474083 0.49594
81 2 0.485505 0.490241 0.475735
90 2 0.493146 0.488485 0.490944
55 2 0.503852 0.487707 0.475653
92 2 0.498012 0.473705 0.484906
110 2 0.517983 0.478995 0.479375
141 2 0.509028 0.49121 0.490727
22 2 0.526595 0.495956 0.488018
25 2 0.503229 0.47889 0.500565
43 1 0.532419 0.48361 0.473273
139 1 0.544962 0.49174 0.486259
118 2 0.533517 0.481675 0.491972
40 2 0.540588 0.501593 0.498714
82 1 0.460642 0.510521 0.476692
65 1 0.450275 0.502737 0.488213
68 2 0.475085 0.514993 0.491051
114 2 0.462479 0.514717 0.500526
94 2 0.483366 0.499225 0.497252
33 2 0.48779 0.502602 0.465385
26 2 0.487638 0.526229 0.475247
102 2 0.49113 0.515357 0.48928
91 2 0.496637 0.502734 0.481011
60 2 0.479444 0.507294 0.478324
69 2 0.513332 0.504952 0.483663
24 2 0.528855 0.511185 0.488815
116 2 0.50367 0.518316 0.473804
15 2 0.507391 0.517 0.49471
8 2 0.5201 0.512079 0.470054
99 2 0.518353 0.521481 0.483021
62 1 0.544948 0.511482 0.48569
20 2 0.53302 0.523804 0.478197
34 2 0.540204 0.517614 0.501665
23 1 0.467048 0.531238 0.495974
107 1 0.469962 0.525093 0.479763
52 2 0.484645 0.531924 0.490977
115 1 0.497945 0.544401 0.480481
83 2 0.500925 0.542926 0.502595
97 2 0.500839 0.529902 0.486759
133 2 0.513086 0.540608 0.485312
46 1 0.526324 0.533464 0.491431
124 1 0.48154 0.45715 0.504321
49 1 0.474783 0.464201 0.516328
16 1 0.490518 0.45749 0.518276
54 2 0.491317 0.472451 0.511308
101 1 0.523193 0.464573 0.504582
130 1 0.527384 0.465384 0.521084
119 1 0.503618 0.456982 0.507697
27 1 0.504569 0.460461 0.528518
39 1 0.454279 0.500251 0.504973
89 1 0.458044 0.481272 0.511568
113 1 0.464914 0.494442 0.521379
77 1 0.468787 0.470445 0.501873
64 2 0.473165 0.488707 0.504477
9 2 0.491612 0.48856 0.507999
12 2 0.477209 0.481029 0.518176
4 2 0.494777 0.48502 0.522748
3 2 0.480769 0.497777 0.518681
128 2 0.500811 0.499381 0.519906
72 2 0.517817 0.477938 0.496406
88 2 0.508573 0.47425 0.514773
76 2 0.523665 0.481887 0.519866
67 2 0.508358 0.492361 0.507611
125 2 0.527528 0.490077 0.504035
78 2 0.510345 0.488157 0.526347
18 1 0.535619 0.477337 0.530684
41 1 0.546062 0.48817 0.505946
28 1 0.537092 0.474054 0.508718
109 2 0.536734 0.491868 0.519025
117 1 0.465748 0.528449 0.512284
100 1 0.456688 0.509509 0.520247
32 2 0.473808 0.516895 0.521168
58 2 0.480226 0.521206 0.50555
10 2 0.472078 0.505827 0.508805
71 2 0.490425 0.50874 0.510081
35 2 0.490181 0.524367 0.519461
106 2 0.495231 0.527141 0.503385
66 2 0.488762 0.509784 0.527041
93 2 0.500172 0.503439 0.498025
108 2 0.519314 0.499484 0.517028
85 2 0.516805 0.503827 0.49942
11 2 0.522886 0.517824 0.503917
132 2 0.507304 0.512574 0.511486
5 2 0.502956 0.517088 0.526385
131 2 0.519869 0.515292 0.52314
129 2 0.505738 0.528936 0.515472
120 1 0.547739 0.502582 0.514263
13 2 0.531255 0.505687 0.511106
50 1 0.53592 0.53462 0.504159
103 2 0.482907 0.538312 0.50578
36 1 0.479188 0.534491 0.524497
44 1 0.493513 0.540881 0.518004
87 1 0.496612 0.530241 0.532824
48 2 0.522745 0.533111 0.514833
137 2 0.512328 0.531993 0.500873
45 1 0.51083 0.538825 0.53023
1 1 0.537099 0.523478 0.516414
31 1 0.485329 0.472016 0.528801
42 1 0.492875 0.485584 0.546628
17 1 0.4781 0.489328 0.534988
95 2 0.495722 0.497324 0.534609
104 2 0.525792 0.492758 0.534408
14 2 0.501375 0.475963 0.533769
63 1 0.518882 0.475447 0.534987
38 1 0.511763 0.489755 0.54357
61 1 0.500814 0.500699 0.549551
111 1 0.469909 0.505877 0.533239
140 1 0.482834 0.503622 0.543007
30 1 0.481545 0.520917 0.535715
79 1 0.499116 0.517906 0.545514
7 2 0.513212 0.50467 0.533802
59 1 0.532742 0.508306 0.528792
136 1 0.514091 0.523234 0.537316
ITEM: TIMESTEP
3910000
ITEM: NUMBER OF ATOMS
141
ITEM: BOX BOUNDS pp pp pp
0.0000000000000000e+00 1.4356000000000000e+02
0.0000000000000000e+00 1.4356000000000000e+02
0.0000000000000000e+00 1.4356000000000000e+02
ITEM: ATOMS id type xs ys zs
21 1 0.497129 0.484705 0.452541
37 1 0.48975 0.476196 0.464557
127 1 0.484648 0.493946 0.463104
2 2 0.499751 0.491015 0.467892
134 1 0.507604 0.471789 0.458588
19 1 0.518833 0.481238 0.464542
138 1 0.510003 0.495236 0.456001
139 1 0.527777 0.495419 0.463932
105 1 0.492039 0.525213 0.460355
80 1 0.494982 0.50267 0.454293
33 2 0.483713 0.509831 0.464097
82 1 0.474788 0.525355 0.466378
75 1 0.51444 0.509678 0.454352
8 2 0.52462 0.515551 0.464976
98 1 0.5104 0.525404 0.462393
135 1 0.470448 0.46882 0.487837
84 2 0.486831 0.458748 0.489154
126 2 0.484591 0.473007 0.479234
53 1 0.499406 0.46269 0.476533
70 1 0.518138 0.467491 0.474499
56 2 0.514125 0.458707 0.489487
112 1 0.531901 0.463592 0.484723
74 1 0.458392 0.486175 0.486804
123 1 0.464904 0.492624 0.470199
29 1 0.472653 0.478802 0.469438
57 2 0.475444 0.487254 0.484309
6 2 0.481545 0.47193 0.498491
81 2 0.492426 0.487547 0.483443
90 2 0.486456 0.489176 0.497328
60 2 0.481297 0.502503 0.477899
92 2 0.501233 0.472196 0.490243
122 2 0.471231 0.49503 0.498797
55 2 0.505737 0.477228 0.475037
110 2 0.517435 0.476093 0.490903
141 2 0.507393 0.489277 0.49025
22 2 0.523823 0.488909 0.478848
40 2 0.527262 0.495423 0.493935
43 1 0.53346 0.476328 0.474698
118 2 0.538878 0.491729 0.479812
28 1 0.534321 0.479524 0.492671
62 1 0.541758 0.488614 0.505335
86 1 0.467112 0.508974 0.472342
65 1 0.464413 0.504163 0.488347
23 1 0.455559 0.512212 0.501854
68 2 0.4713 0.519137 0.486166
107 1 0.473612 0.535401 0.48341
94 2 0.482432 0.506674 0.492745
26 2 0.486595 0.520954 0.479329
102 2 0.498554 0.516249 0.491193
91 2 0.496685 0.503206 0.479062
52 2 0.484234 0.524846 0.497357
96 2 0.501779 0.512213 0.466177
93 2 0.497727 0.500576 0.498774
47 1 0.519607 0.535461 0.477662
116 2 0.500587 0.528421 0.477787
73 2 0.512893 0.501388 0.470746
69 2 0.512304 0.503519 0.486355
99 2 0.51252 0.519652 0.47703
11 2 0.524372 0.512423 0.494215
24 2 0.528914 0.504366 0.47944
15 2 0.513772 0.523569 0.491821
121 1 0.541943 0.512856 0.476658
20 2 0.528046 0.521595 0.481078
34 2 0.54218 0.505272 0.494847
103 2 0.468408 0.529223 0.498872
51 1 0.48686 0.536118 0.472454
97 2 0.490107 0.539367 0.490503
115 1 0.477312 0.543414 0.502466
137 2 0.524382 0.535782 0.493347
133 2 0.508656 0.53982 0.491541
129 2 0.513255 0.539586 0.509317
49 1 0.473302 0.465515 0.512943
124 1 0.485013 0.455138 0.506434
16 1 0.485853 0.457957 0.522456
54 2 0.492739 0.470786 0.510419
119 1 0.500364 0.453588 0.497866
27 1 0.501881 0.456555 0.517476
101 1 0.527231 0.465305 0.501316
72 2 0.51014 0.468548 0.504899
63 1 0.520414 0.46228 0.517191
39 1 0.45538 0.493464 0.50074
77 1 0.463173 0.477202 0.501702
89 1 0.460124 0.471578 0.520665
10 2 0.461699 0.486321 0.515597
100 1 0.464691 0.480986 0.533707
64 2 0.480585 0.482008 0.510295
9 2 0.482078 0.498963 0.509772
12 2 0.481639 0.47593 0.525659
4 2 0.493263 0.488754 0.520471
25 2 0.502228 0.485474 0.504734
3 2 0.476005 0.491912 0.524819
128 2 0.497247 0.50418 0.515427
125 2 0.521299 0.482987 0.503795
85 2 0.513384 0.498356 0.502791
88 2 0.507515 0.476623 0.518497
76 2 0.522157 0.480154 0.523861
67 2 0.509208 0.492279 0.517887
109 2 0.524653 0.494681 0.515026
41 1 0.535122 0.477241 0.513535
114 2 0.467646 0.501992 0.514843
117 1 0.465613 0.523085 0.514805
32 2 0.481733 0.51248 0.521049
58 2 0.47396 0.513174 0.504059
71 2 0.491275 0.515074 0.506638
66 2 0.495613 0.527542 0.517541
106 2 0.500446 0.529128 0.502474
35 2 0.510637 0.526614 0.518285
108 2 0.515321 0.509279 0.51742
132 2 0.509048 0.513918 0.504108
131 2 0.526292 0.522332 0.523288
13 2 0.529367 0.508641 0.508662
48 2 0.522209 0.52471 0.506964
120 1 0.54551 0.504617 0.512558
1 1 0.538506 0.520185 0.514896
59 1 0.53241 0.506101 0.525817
83 2 0.493232 0.542064 0.507425
36 1 0.480211 0.529752 0.513683
44 1 0.503498 0.541173 0.524143
30 1 0.472902 0.528655 0.528679
45 1 0.52019 0.538574 0.525355
46 1 0.531604 0.538436 0.512107
50 1 0.537665 0.522132 0.4978
31 1 0.496131 0.469402 0.527753
130 1 0.513694 0.468371 0.532267
17 1 0.486475 0.479998 0.540529
42 1 0.495653 0.492708 0.544533
78 2 0.503789 0.501381 0.530011
104 2 0.520972 0.495265 0.530647
14 2 0.506435 0.485428 0.533291
38 1 0.51174 0.501135 0.543351
18 1 0.538278 0.49063 0.525202
95 2 0.487162 0.50008 0.531987
111 1 0.466535 0.5131 0.528496
113 1 0.478424 0.49541 0.545398
140 1 0.479845 0.516457 0.538963
61 1 0.492411 0.508525 0.54637
5 2 0.495834 0.516114 0.530261
79 1 0.494452 0.524692 0.546209
7 2 0.515973 0.513583 0.533114
136 1 0.506845 0.527244 0.533926
87 1 0.489957 0.533698 0.531978
ITEM: TIMESTEP
3915000
ITEM: NUMBER OF ATOMS
141
ITEM: BOX BOUNDS pp pp pp
0.0000000000000000e+00 1.4356000000000000e+02
0.0000000000000000e+00 1.4356000000000000e+02
0.0000000000000000e+00 1.4356000000000000e+02
ITEM: ATOMS id type xs ys zs
37 1 0.488972 0.46906 0.465396
127 1 0.472194 0.486791 0.466513
21 1 0.490926 0.488039 0.461872
134 1 0.50556 0.472554 0.462591
19 1 0.508162 0.492141 0.460399
43 1 0.524368 0.483955 0.45972
82 1 0.499373 0.525013 0.461974
86 1 0.47983 0.503151 0.461625
80 1 0.496187 0.507276 0.460084
138 1 0.511847 0.50904 0.462531
75 1 0.514862 0.527901 0.465782
96 2 0.505102 0.515049 0.475161
139 1 0.527675 0.500977 0.463543
135 1 0.473268 0.468848 0.487814
53 1 0.504271 0.457412 0.475074
84 2 0.487733 0.461847 0.502054
126 2 0.490745 0.46852 0.484269
56 2 0.500327 0.459464 0.492262
70 1 0.521436 0.46288 0.473428
119 1 0.515753 0.453834 0.488136
112 1 0.529227 0.465319 0.489281
74 1 0.464285 0.485462 0.481464
123 1 0.468403 0.501032 0.475373
65 1 0.454342 0.492158 0.491218
29 1 0.470959 0.471105 0.471921
33 2 0.484497 0.496023 0.477812
6 2 0.485336 0.477398 0.497466
57 2 0.463909 0.479565 0.496184
81 2 0.47993 0.481765 0.481441
90 2 0.493164 0.488614 0.489941
55 2 0.499003 0.481113 0.475633
2 2 0.501613 0.497907 0.47552
73 2 0.517635 0.496367 0.476181
110 2 0.511836 0.46935 0.48512
141 2 0.509603 0.488734 0.488556
22 2 0.515897 0.479059 0.473406
40 2 0.525049 0.482066 0.486902
28 1 0.533124 0.476686 0.473657
118 2 0.536162 0.493289 0.475629
62 1 0.543596 0.482522 0.485726
120 1 0.545704 0.50318 0.492628
68 2 0.46217 0.507541 0.489474
103 2 0.463669 0.523463 0.488362
60 2 0.474123 0.49472 0.492031
91 2 0.494442 0.505323 0.486779
94 2 0.477389 0.512071 0.488213
26 2 0.488193 0.513807 0.472261
107 1 0.472806 0.519957 0.47281
106 2 0.496849 0.527372 0.503132
116 2 0.490521 0.522995 0.488901
102 2 0.505064 0.514164 0.497104
69 2 0.511644 0.506544 0.485938
99 2 0.511778 0.526208 0.48413
11 2 0.52558 0.517098 0.49503
24 2 0.527783 0.500606 0.487807
8 2 0.52104 0.513847 0.476872
98 1 0.532288 0.525448 0.469456
121 1 0.542375 0.520221 0.491958
34 2 0.537344 0.512171 0.479679
52 2 0.477632 0.533477 0.486759
51 1 0.487068 0.531218 0.473069
115 1 0.486369 0.54259 0.499987
97 2 0.499609 0.536767 0.489767
105 1 0.503296 0.537512 0.472878
15 2 0.513038 0.528398 0.501809
20 2 0.526363 0.532673 0.490356
47 1 0.522119 0.538073 0.47673
133 2 0.51565 0.544142 0.492446
89 1 0.470784 0.466815 0.525128
49 1 0.471605 0.466758 0.507816
16 1 0.485741 0.454749 0.518144
54 2 0.490883 0.471022 0.514889
124 1 0.502368 0.449144 0.506764
27 1 0.500947 0.458906 0.52315
72 2 0.513062 0.462639 0.503088
77 1 0.46059 0.475682 0.515101
122 2 0.46543 0.493193 0.506015
39 1 0.449434 0.48767 0.506242
10 2 0.46509 0.490393 0.522489
64 2 0.476653 0.481712 0.512581
4 2 0.495888 0.485939 0.523835
25 2 0.49529 0.485482 0.507859
3 2 0.47952 0.497953 0.5207
9 2 0.484504 0.496295 0.504605
128 2 0.495051 0.502782 0.515182
92 2 0.503198 0.474641 0.497942
63 1 0.523684 0.468073 0.51643
125 2 0.519703 0.478049 0.503256
88 2 0.507348 0.474503 0.514768
67 2 0.512151 0.490552 0.508301
104 2 0.51723 0.48415 0.523297
101 1 0.537962 0.472208 0.502431
76 2 0.530934 0.484136 0.514453
109 2 0.528126 0.491175 0.502557
41 1 0.545622 0.487093 0.502511
23 1 0.451805 0.504878 0.503333
114 2 0.463697 0.505458 0.517713
117 1 0.462077 0.520677 0.507478
58 2 0.471901 0.506949 0.502415
32 2 0.478113 0.51502 0.514193
71 2 0.489687 0.512275 0.501682
5 2 0.491547 0.521739 0.516869
30 1 0.476242 0.530719 0.518605
36 1 0.478885 0.52509 0.500987
140 1 0.483157 0.516754 0.530468
93 2 0.500651 0.49828 0.501541
129 2 0.507825 0.527593 0.51733
85 2 0.51667 0.503215 0.500252
35 2 0.502267 0.51555 0.5286
108 2 0.523983 0.501668 0.515385
132 2 0.508087 0.512112 0.512996
48 2 0.5209 0.518677 0.51119
45 1 0.511868 0.531708 0.534884
131 2 0.52011 0.518222 0.526922
18 1 0.542745 0.495206 0.516451
50 1 0.53511 0.526681 0.508391
13 2 0.535499 0.507027 0.504374
1 1 0.536401 0.511286 0.523699
87 1 0.469288 0.539286 0.505974
66 2 0.4913 0.539721 0.515836
83 2 0.503002 0.544396 0.504595
137 2 0.522415 0.540214 0.506959
44 1 0.508545 0.543933 0.521558
46 1 0.524994 0.534127 0.521368
31 1 0.487885 0.469519 0.531102
100 1 0.468498 0.503987 0.533834
12 2 0.477557 0.482794 0.530171
17 1 0.477551 0.493444 0.542087
14 2 0.494012 0.484823 0.539912
95 2 0.491457 0.501684 0.531941
78 2 0.50816 0.499698 0.522486
59 1 0.531949 0.497773 0.530788
42 1 0.503568 0.507006 0.542933
130 1 0.505095 0.473148 0.532556
38 1 0.509378 0.489571 0.536561
111 1 0.466377 0.518442 0.526233
79 1 0.493991 0.532223 0.530158
113 1 0.485357 0.510436 0.544749
61 1 0.496781 0.52296 0.542986
7 2 0.516848 0.503054 0.534695
136 1 0.515107 0.518907 0.54371
ITEM: TIMESTEP
3920000
ITEM: NUMBER OF ATOMS
141
ITEM: BOX BOUNDS pp pp pp
0.0000000000000000e+00 1.4356000000000000e+02
0.0000000000000000e+00 1.4356000000000000e+02
0.0000000000000000e+00 1.4356000000000000e+02
ITEM: ATOMS id type xs ys zs
37 1 0.492771 0.47321 0.463034
86 1 0.470911 0.492799 0.465418
21 1 0.485368 0.487975 0.45555
134 1 0.515455 0.463178 0.471076
19 1 0.503997 0.482971 0.454544
43 1 0.519146 0.478819 0.463755
2 2 0.497936 0.496938 0.463553
80 1 0.482165 0.505303 0.459073
82 1 0.486247 0.524553 0.46318
26 2 0.472576 0.517246 0.470425
139 1 0.514949 0.496335 0.458676
138 1 0.496989 0.513391 0.464641
73 2 0.514642 0.513594 0.463736
118 2 0.527295 0.503944 0.467031
75 1 0.501272 0.529465 0.465298
135 1 0.483122 0.459127 0.486445
126 2 0.490023 0.456483 0.501075
16 1 0.501503 0.453375 0.513355
92 2 0.501538 0.466519 0.491889
70 1 0.498241 0.463167 0.476006
53 1 0.520904 0.460517 0.486102
112 1 0.530229 0.470019 0.495238
29 1 0.470392 0.471813 0.488034
74 1 0.470285 0.487051 0.48018
57 2 0.460922 0.482112 0.499008
122 2 0.470137 0.500476 0.493887
127 1 0.476705 0.474624 0.467877
33 2 0.48747 0.490024 0.473498
6 2 0.486307 0.471681 0.498356
81 2 0.488623 0.473889 0.480264
90 2 0.498317 0.482753 0.489916
60 2 0.48423 0.488169 0.489978
55 2 0.5047 0.480644 0.472108
119 1 0.530627 0.472499 0.477562
110 2 0.513958 0.475085 0.485176
141 2 0.511993 0.492367 0.489642
22 2 0.520373 0.489921 0.475736
25 2 0.512221 0.477231 0.499599
40 2 0.530873 0.488675 0.493275
109 2 0.521198 0.499454 0.500042
28 1 0.538006 0.488243 0.475871
62 1 0.544927 0.478394 0.489259
13 2 0.544394 0.498052 0.491151
41 1 0.556569 0.503352 0.501017
65 1 0.455084 0.496676 0.488659
123 1 0.461765 0.504028 0.474357
68 2 0.47068 0.514065 0.486348
94 2 0.479943 0.503596 0.475769
107 1 0.474704 0.529598 0.481566
51 1 0.491274 0.534278 0.482149
91 2 0.485158 0.505139 0.490496
116 2 0.481196 0.525915 0.496186
96 2 0.486017 0.518153 0.478681
97 2 0.496137 0.517266 0.491105
69 2 0.497739 0.498815 0.482759
24 2 0.510398 0.502052 0.474842
99 2 0.510796 0.511099 0.491092
8 2 0.504424 0.520205 0.477782
20 2 0.520068 0.515982 0.478626
106 2 0.507313 0.523546 0.504006
120 1 0.539715 0.506342 0.478111
11 2 0.526237 0.501198 0.485257
121 1 0.535149 0.524142 0.482309
34 2 0.530257 0.522841 0.467092
1 1 0.548359 0.515465 0.490071
103 2 0.479406 0.542773 0.491437
52 2 0.49332 0.533378 0.499943
105 1 0.495244 0.547598 0.490937
115 1 0.51053 0.543237 0.500236
47 1 0.505773 0.531491 0.487994
133 2 0.521998 0.527116 0.493177
98 1 0.518117 0.533225 0.474501
49 1 0.485336 0.458708 0.514884
27 1 0.483568 0.465639 0.532548
77 1 0.472281 0.466666 0.506044
84 2 0.498287 0.468727 0.508748
56 2 0.516636 0.460882 0.503855
124 1 0.500276 0.466446 0.527319
72 2 0.529439 0.467703 0.511744
89 1 0.47073 0.481307 0.53384
39 1 0.453191 0.497604 0.504536
10 2 0.465883 0.482297 0.517019
3 2 0.469214 0.501444 0.511725
17 1 0.452729 0.49553 0.51995
54 2 0.482105 0.476367 0.517985
64 2 0.476867 0.484687 0.503313
9 2 0.49384 0.485948 0.506542
12 2 0.481901 0.490668 0.519562
4 2 0.500177 0.481508 0.521773
71 2 0.483309 0.499066 0.505379
88 2 0.514695 0.472128 0.516511
125 2 0.527412 0.483459 0.509561
67 2 0.509763 0.491251 0.505666
104 2 0.514391 0.488096 0.520503
101 1 0.545778 0.479976 0.506634
76 2 0.540062 0.497155 0.507744
59 1 0.534091 0.490841 0.525259
23 1 0.456164 0.511502 0.494019
114 2 0.457951 0.514732 0.51053
117 1 0.462764 0.526636 0.496158
58 2 0.472907 0.514463 0.50329
128 2 0.494612 0.499543 0.515447
102 2 0.489681 0.513617 0.505976
32 2 0.473357 0.524687 0.517236
5 2 0.49255 0.524713 0.516201
35 2 0.481052 0.509225 0.517868
93 2 0.499032 0.501877 0.498986
108 2 0.52389 0.499232 0.51453
132 2 0.508756 0.508881 0.510021
48 2 0.514645 0.506901 0.526474
129 2 0.508859 0.520764 0.520417
15 2 0.522211 0.51694 0.508017
66 2 0.501971 0.537273 0.514287
44 1 0.526333 0.520909 0.526167
85 2 0.533341 0.509017 0.497328
137 2 0.539273 0.515659 0.512174
36 1 0.473799 0.537106 0.50575
30 1 0.484886 0.537176 0.52121
87 1 0.489401 0.548021 0.507464
79 1 0.513604 0.535114 0.528812
83 2 0.52038 0.534123 0.512638
50 1 0.536651 0.525571 0.49967
31 1 0.488252 0.481166 0.535436
95 2 0.468959 0.4953 0.528471
14 2 0.486205 0.500219 0.531439
130 1 0.510298 0.476784 0.535078
42 1 0.477668 0.492213 0.545184
63 1 0.525841 0.474348 0.528579
78 2 0.502786 0.495001 0.53066
7 2 0.519531 0.49153 0.536162
18 1 0.534604 0.507115 0.526493
100 1 0.466355 0.51183 0.525591
131 2 0.498712 0.510773 0.526275
38 1 0.493419 0.498553 0.545339
111 1 0.481449 0.523495 0.531205
113 1 0.474352 0.508661 0.540585
61 1 0.490673 0.514803 0.540842
136 1 0.508273 0.503983 0.545799
45 1 0.510122 0.519848 0.53799
46 1 0.523276 0.508159 0.539905
140 1 0.498035 0.527414 0.531919
ITEM: TIMESTEP
3925000
ITEM: NUMBER OF ATOMS
141
ITEM: BOX BOUNDS pp pp pp
0.0000000000000000e+00 1.4356000000000000e+02
0.0000000000000000e+00 1.4356000000000000e+02
0.0000000000000000e+00 1.4356000000000000e+02
ITEM: ATOMS id type xs ys zs
86 1 0.475598 0.493064 0.470175
127 1 0.48387 0.481604 0.461002
37 1 0.501207 0.475602 0.458411
19 1 0.497079 0.491299 0.450441
43 1 0.513607 0.484485 0.452782
134 1 0.52526 0.477062 0.46435
24 2 0.507262 0.490634 0.466506
21 1 0.480155 0.496048 0.455152
2 2 0.491979 0.496515 0.466785
80 1 0.478956 0.513231 0.460652
138 1 0.483819 0.52787 0.459435
73 2 0.494129 0.508533 0.455121
139 1 0.509542 0.504982 0.454937
34 2 0.52209 0.513907 0.470601
98 1 0.508906 0.520113 0.460586
135 1 0.489213 0.458529 0.493103
126 2 0.502767 0.465084 0.485656
29 1 0.469119 0.474719 0.490749
70 1 0.497316 0.462445 0.469724
112 1 0.520841 0.460659 0.489011
110 2 0.517539 0.463231 0.472732
101 1 0.535058 0.470593 0.495528
65 1 0.45902 0.48668 0.484893
74 1 0.469535 0.47788 0.47355
33 2 0.493888 0.480698 0.474091
6 2 0.484632 0.474124 0.496065
81 2 0.485402 0.468815 0.480332
60 2 0.482019 0.484809 0.484072
69 2 0.500155 0.494062 0.481392
90 2 0.498463 0.481888 0.490836
122 2 0.47121 0.499202 0.484496
64 2 0.475102 0.490185 0.497867
71 2 0.488074 0.497724 0.492468
55 2 0.509373 0.477049 0.473571
141 2 0.520658 0.496767 0.495207
22 2 0.517147 0.489522 0.481187
25 2 0.513795 0.475435 0.490627
40 2 0.535847 0.489578 0.490204
119 1 0.528311 0.47275 0.480875
28 1 0.533003 0.48809 0.472777
13 2 0.536619 0.502584 0.499235
23 1 0.456284 0.5073 0.485147
123 1 0.465256 0.510436 0.471213
107 1 0.460329 0.526722 0.489992
26 2 0.475616 0.523682 0.474904
68 2 0.474583 0.515506 0.488085
94 2 0.483954 0.505892 0.477796
91 2 0.496806 0.509442 0.486057
51 1 0.491981 0.518927 0.470799
116 2 0.489251 0.513899 0.498954
52 2 0.495816 0.526961 0.486877
11 2 0.531654 0.503573 0.480885
96 2 0.50418 0.507276 0.470266
97 2 0.509256 0.520483 0.479779
99 2 0.50879 0.516086 0.49671
8 2 0.514706 0.50484 0.483326
20 2 0.528841 0.523078 0.4828
106 2 0.505272 0.532619 0.500779
118 2 0.520757 0.498475 0.466544
85 2 0.526315 0.513006 0.494408
120 1 0.542223 0.516107 0.488657
121 1 0.535037 0.528409 0.502406
82 1 0.486879 0.534623 0.477638
75 1 0.502302 0.534217 0.469476
103 2 0.477516 0.530767 0.491617
105 1 0.489352 0.544354 0.495828
133 2 0.516129 0.53006 0.49105
115 1 0.505389 0.541977 0.485087
47 1 0.518126 0.533607 0.472528
27 1 0.464749 0.477428 0.521059
92 2 0.489466 0.464371 0.510575
77 1 0.472624 0.465262 0.506163
49 1 0.48 0.469868 0.524089
53 1 0.503788 0.453828 0.499756
16 1 0.50501 0.45925 0.516409
56 2 0.502547 0.471025 0.502563
72 2 0.518775 0.466592 0.505401
39 1 0.460537 0.496509 0.499357
57 2 0.462433 0.481937 0.505707
10 2 0.470621 0.494438 0.515388
89 1 0.472127 0.476052 0.537165
17 1 0.45335 0.497399 0.514321
95 2 0.466493 0.491103 0.530528
93 2 0.503464 0.498993 0.498254
84 2 0.494849 0.479205 0.518354
54 2 0.479661 0.479996 0.511643
9 2 0.492561 0.487409 0.504783
12 2 0.480892 0.486929 0.52593
3 2 0.486086 0.499293 0.514874
88 2 0.509588 0.473846 0.518234
125 2 0.524839 0.481471 0.502575
67 2 0.51023 0.486427 0.506383
104 2 0.516281 0.48999 0.520247
59 1 0.534771 0.473054 0.513742
62 1 0.543466 0.48479 0.505203
76 2 0.535526 0.485825 0.524638
41 1 0.542221 0.50183 0.520064
58 2 0.474633 0.506044 0.502104
117 1 0.456579 0.512884 0.500859
114 2 0.465651 0.513492 0.51814
36 1 0.469305 0.525999 0.506793
128 2 0.50123 0.49426 0.517685
102 2 0.50027 0.508971 0.509467
5 2 0.488016 0.529255 0.503987
35 2 0.482575 0.517734 0.514914
131 2 0.494015 0.513007 0.524738
109 2 0.530726 0.494212 0.511772
108 2 0.524 0.505211 0.525742
132 2 0.515156 0.503105 0.510691
48 2 0.511247 0.515486 0.521269
129 2 0.499706 0.527071 0.516436
15 2 0.518561 0.522924 0.507876
44 1 0.514934 0.534662 0.520097
78 2 0.509001 0.501617 0.530634
1 1 0.546333 0.514668 0.508157
50 1 0.530193 0.528481 0.518053
137 2 0.530549 0.511477 0.511825
32 2 0.474229 0.528113 0.521426
30 1 0.489024 0.537341 0.520251
87 1 0.476352 0.540907 0.509302
66 2 0.503911 0.542859 0.512835
83 2 0.520872 0.539615 0.50462
79 1 0.503687 0.540526 0.530531
31 1 0.489077 0.476648 0.54028
42 1 0.477479 0.491517 0.543184
14 2 0.491911 0.49795 0.531147
130 1 0.495149 0.491432 0.545892
4 2 0.505319 0.48347 0.532494
124 1 0.498488 0.467624 0.530439
38 1 0.510982 0.494172 0.546023
63 1 0.52399 0.474414 0.526976
7 2 0.522448 0.487903 0.536876
100 1 0.475695 0.506387 0.531624
111 1 0.483578 0.523028 0.533587
113 1 0.488122 0.507538 0.543678
61 1 0.502675 0.508997 0.547097
136 1 0.521867 0.504566 0.542543
45 1 0.520065 0.5209 0.534154
140 1 0.502986 0.524773 0.534458
18 1 0.537898 0.499559 0.536384
46 1 0.535169 0.516383 0.528506
ITEM: TIMESTEP
3930000
ITEM: NUMBER OF ATOMS
141
ITEM: BOX BOUNDS pp pp pp
0.0000000000000000e+00 1.4356000000000000e+02
0.0000000000000000e+00 1.4356000000000000e+02
0.0000000000000000e+00 1.4356000000000000e+02
ITEM: ATOMS id type xs ys zs
39 1 0.466261 0.481335 0.463495
70 1 0.487638 0.466378 0.466001
127 1 0.474417 0.496863 0.460316
74 1 0.472899 0.471516 0.47421
33 2 0.493754 0.490668 0.472426
19 1 0.494118 0.495253 0.456659
43 1 0.484719 0.482639 0.460835
37 1 0.500623 0.476999 0.461163
134 1 0.515635 0.469567 0.467007
24 2 0.51312 0.490048 0.46589
80 1 0.484952 0.52164 0.462334
21 1 0.469472 0.516266 0.471905
73 2 0.496659 0.512679 0.457689
138 1 0.507534 0.524902 0.457932
2 2 0.485708 0.504871 0.468625
51 1 0.501336 0.519211 0.471972
139 1 0.542906 0.513294 0.47636
98 1 0.513356 0.509003 0.457818
96 2 0.504274 0.503294 0.471484
118 2 0.523892 0.505718 0.471293
75 1 0.51041 0.536009 0.471726
29 1 0.479775 0.454038 0.495608
135 1 0.495295 0.450401 0.487311
81 2 0.470154 0.467395 0.490743
110 2 0.484537 0.461941 0.483002
6 2 0.485427 0.471765 0.497625
126 2 0.498185 0.468671 0.489508
112 1 0.515399 0.459817 0.483688
119 1 0.501429 0.462525 0.472789
28 1 0.525219 0.473928 0.480958
101 1 0.531425 0.468818 0.496437
65 1 0.46334 0.483127 0.48183
57 2 0.459535 0.479197 0.499582
86 1 0.477212 0.490832 0.473849
60 2 0.487979 0.477928 0.478968
64 2 0.472245 0.464344 0.506795
71 2 0.489499 0.494475 0.488183
58 2 0.47598 0.484431 0.492135
90 2 0.498275 0.482612 0.496131
69 2 0.505585 0.493627 0.484137