ITEM: TIMESTEP
9950000
ITEM: NUMBER OF ATOMS
141
ITEM: BOX BOUNDS pp pp pp
0.0000000000000000e+00 1.4356000000000000e+02
0.0000000000000000e+00 1.4356000000000000e+02
0.0000000000000000e+00 1.4356000000000000e+02
ITEM: ATOMS id type xs ys zs
120 1 0.48174 0.469245 0.468991
136 1 0.469195 0.496361 0.469793
30 1 0.489017 0.488173 0.45108
53 1 0.477005 0.483335 0.461672
21 1 0.495278 0.475605 0.460036
66 2 0.494636 0.490785 0.468633
107 1 0.511106 0.473632 0.46566
18 1 0.506739 0.486499 0.455744
39 1 0.521675 0.487612 0.463835
45 1 0.481393 0.502083 0.458062
95 2 0.499105 0.502757 0.458221
41 1 0.49213 0.518865 0.458561
89 1 0.473374 0.516178 0.466873
98 1 0.507498 0.51879 0.463337
111 1 0.516067 0.501877 0.460559
70 1 0.532442 0.502894 0.467982
134 1 0.51629 0.532624 0.468734
93 2 0.500547 0.532544 0.466899
7 2 0.474279 0.466457 0.485576
94 2 0.498935 0.463507 0.472616
129 2 0.482401 0.455938 0.494184
62 1 0.500892 0.453169 0.487473
57 2 0.511709 0.467079 0.483638
65 1 0.518233 0.458037 0.497109
67 2 0.501711 0.467029 0.495963
50 1 0.527615 0.468576 0.486745
23 1 0.455928 0.491214 0.482575
38 1 0.46441 0.477888 0.474727
90 2 0.467064 0.492765 0.498547
19 1 0.460247 0.476264 0.492117
79 1 0.450656 0.4981 0.497689
35 2 0.4904 0.472146 0.484759
126 2 0.476803 0.496082 0.486129
84 2 0.495026 0.495624 0.485788
32 2 0.482256 0.483833 0.478025
5 2 0.47737 0.480352 0.493684
12 2 0.498668 0.482206 0.49662
91 2 0.483623 0.493043 0.499963
78 2 0.501828 0.479879 0.477803
33 2 0.51562 0.475025 0.498672
103 2 0.518269 0.480781 0.479876
68 2 0.512898 0.492074 0.493406
73 2 0.508993 0.494524 0.477514
64 2 0.525336 0.496179 0.481375
8 2 0.529257 0.484044 0.493123
86 1 0.535945 0.483848 0.47544
36 1 0.545823 0.476527 0.490711
123 1 0.543184 0.494762 0.487745
113 1 0.465889 0.508072 0.480272
59 1 0.460676 0.5141 0.497613
141 2 0.484693 0.504984 0.475213
137 2 0.475458 0.507373 0.497996
2 2 0.476409 0.519885 0.483834
13 2 0.490583 0.510948 0.490447
63 1 0.490541 0.522022 0.475299
72 2 0.492993 0.528992 0.489415
49 1 0.520469 0.512701 0.47455
69 2 0.503196 0.517018 0.499015
92 2 0.501734 0.50959 0.475263
25 2 0.512303 0.507224 0.487176
9 2 0.506159 0.522309 0.483971
102 2 0.519895 0.519342 0.493204
3 2 0.532817 0.50857 0.485781
74 1 0.533845 0.5236 0.476476
20 2 0.536796 0.521901 0.497076
121 1 0.468914 0.529465 0.494128
112 1 0.483697 0.537853 0.479265
82 1 0.482555 0.54068 0.494483
47 1 0.498252 0.547105 0.496674
133 2 0.520455 0.532913 0.486491
96 2 0.508299 0.532682 0.497027
122 2 0.504434 0.54068 0.482319
140 1 0.514728 0.547166 0.498695
124 1 0.468442 0.467726 0.504313
130 1 0.493716 0.454134 0.505813
115 1 0.475902 0.463409 0.519852
104 2 0.486296 0.469578 0.50349
118 2 0.493402 0.466041 0.520241
101 1 0.508111 0.455661 0.513434
61 1 0.508673 0.467672 0.526512
131 2 0.522095 0.468903 0.513419
100 1 0.534903 0.467642 0.503146
16 1 0.45447 0.483708 0.506295
81 2 0.498951 0.499436 0.500783
99 2 0.474681 0.481813 0.510126
71 2 0.472173 0.492778 0.529094
110 2 0.49167 0.483005 0.510707
15 2 0.482693 0.478625 0.52616
34 2 0.473801 0.499248 0.511735
85 2 0.488861 0.494205 0.521991
109 2 0.528921 0.499285 0.501095
116 2 0.501093 0.48375 0.523377
24 2 0.504828 0.473536 0.510348
48 2 0.516378 0.484493 0.524284
22 2 0.524401 0.485621 0.508128
132 2 0.507767 0.490126 0.509231
114 2 0.519509 0.497767 0.51784
56 2 0.534634 0.498699 0.517495
29 1 0.542413 0.48673 0.504741
117 1 0.533708 0.479021 0.519873
37 1 0.45889 0.50542 0.51238
51 1 0.468057 0.521334 0.511636
128 2 0.471431 0.512655 0.525125
10 2 0.485768 0.508538 0.511054
6 2 0.489982 0.510212 0.526508
83 2 0.483015 0.524077 0.518419
76 2 0.48333 0.522806 0.502098
52 2 0.499152 0.521857 0.516325
40 2 0.51367 0.506262 0.504002
60 2 0.50241 0.505683 0.516392
88 2 0.528232 0.514054 0.509743
55 2 0.515152 0.52212 0.509858
106 2 0.516592 0.513987 0.522453
119 1 0.542648 0.507944 0.505648
135 1 0.538848 0.524833 0.51691
42 1 0.532102 0.511434 0.527749
77 1 0.481538 0.544623 0.509788
46 1 0.492164 0.540904 0.522485
125 2 0.494966 0.534358 0.507228
75 1 0.496032 0.554208 0.510237
27 1 0.476102 0.535405 0.526134
108 2 0.523646 0.530713 0.520364
58 2 0.526393 0.533676 0.503455
43 1 0.510432 0.538739 0.513883
97 2 0.494403 0.492541 0.538061
44 1 0.495683 0.475108 0.537281
1 1 0.478821 0.48285 0.541305
31 1 0.495235 0.485996 0.551519
26 2 0.527938 0.493804 0.533356
105 1 0.52377 0.474736 0.537483
11 2 0.506297 0.498469 0.529539
87 1 0.510775 0.482391 0.539965
17 1 0.491495 0.508742 0.545687
139 1 0.47989 0.502888 0.537134
127 1 0.47695 0.52181 0.538064
54 2 0.491448 0.527705 0.532643
138 1 0.505668 0.50057 0.546045
14 2 0.504357 0.516315 0.535458
28 1 0.522809 0.525558 0.536171
4 2 0.517775 0.507721 0.538726
80 1 0.507635 0.531645 0.531182
ITEM: TIMESTEP
9955000
ITEM: NUMBER OF ATOMS
141
ITEM: BOX BOUNDS pp pp pp
0.0000000000000000e+00 1.4356000000000000e+02
0.0000000000000000e+00 1.4356000000000000e+02
0.0000000000000000e+00 1.4356000000000000e+02
ITEM: ATOMS id type xs ys zs
53 1 0.501973 0.470025 0.470437
136 1 0.473912 0.494271 0.470089
38 1 0.482814 0.478149 0.46484
30 1 0.487947 0.500383 0.454763
21 1 0.498323 0.486158 0.465669
107 1 0.515573 0.479905 0.463423
18 1 0.508885 0.4907 0.453912
89 1 0.4782 0.513551 0.464485
45 1 0.482408 0.529475 0.461481
41 1 0.496419 0.515947 0.456853
39 1 0.520558 0.501174 0.459804
98 1 0.513114 0.517009 0.456253
49 1 0.529658 0.514622 0.464271
7 2 0.487089 0.467807 0.497501
62 1 0.491539 0.458063 0.482712
94 2 0.508615 0.482118 0.480973
57 2 0.508766 0.466713 0.487222
67 2 0.500731 0.456611 0.496921
65 1 0.518518 0.458776 0.496641
50 1 0.531133 0.462969 0.488008
23 1 0.466024 0.481524 0.477249
19 1 0.468259 0.471168 0.495221
79 1 0.458537 0.501511 0.481274
90 2 0.463762 0.488517 0.492815
120 1 0.477811 0.470088 0.481442
126 2 0.475327 0.498442 0.486824
84 2 0.492787 0.493829 0.490352
32 2 0.486101 0.486608 0.477255
5 2 0.481104 0.483423 0.490795
78 2 0.49577 0.476986 0.487169
91 2 0.480957 0.505546 0.502734
95 2 0.504245 0.502552 0.466873
35 2 0.494203 0.481723 0.504061
86 1 0.520541 0.46967 0.475692
103 2 0.518231 0.493038 0.473667
73 2 0.508371 0.497858 0.486846
8 2 0.522255 0.475972 0.492421
109 2 0.523709 0.491445 0.488835
70 1 0.530807 0.486894 0.462211
64 2 0.542052 0.494869 0.488257
36 1 0.532708 0.480406 0.478803
111 1 0.53224 0.501698 0.474619
113 1 0.46166 0.508742 0.466611
59 1 0.461767 0.524944 0.48797
137 2 0.462354 0.509159 0.494728
63 1 0.466518 0.526566 0.470118
37 1 0.45009 0.496892 0.496977
66 2 0.488883 0.503271 0.476344
2 2 0.47671 0.518094 0.49202
141 2 0.470381 0.512534 0.479487
13 2 0.49119 0.509596 0.490953
92 2 0.48633 0.523666 0.477487
72 2 0.490412 0.526804 0.493598
93 2 0.499517 0.528179 0.467998
69 2 0.50045 0.51479 0.478114
25 2 0.517536 0.507973 0.479685
9 2 0.517012 0.523469 0.473669
102 2 0.521243 0.519083 0.491716
40 2 0.505925 0.513674 0.495879
3 2 0.530522 0.506143 0.491687
123 1 0.546794 0.511215 0.486843
74 1 0.532283 0.520295 0.479615
20 2 0.534678 0.524129 0.497712
121 1 0.476787 0.53595 0.495256
112 1 0.477557 0.538291 0.477974
82 1 0.491448 0.544283 0.495325
47 1 0.49441 0.538263 0.480448
134 1 0.509513 0.540774 0.474203
96 2 0.503635 0.530475 0.501832
122 2 0.50792 0.527393 0.485667
140 1 0.50795 0.544334 0.490826
58 2 0.517454 0.539652 0.502944
133 2 0.523695 0.533749 0.487316
129 2 0.477112 0.467179 0.50918
130 1 0.485474 0.452056 0.503675
118 2 0.492428 0.463759 0.526479
115 1 0.475676 0.472223 0.534398
101 1 0.507159 0.455296 0.516263
131 2 0.518901 0.46799 0.518966
100 1 0.529953 0.465405 0.50568
124 1 0.462321 0.47478 0.51864
16 1 0.457002 0.48827 0.509355
71 2 0.472316 0.486133 0.521081
104 2 0.494515 0.465504 0.51127
34 2 0.470181 0.50113 0.512741
12 2 0.487275 0.493723 0.511225
99 2 0.474751 0.484375 0.506509
110 2 0.486243 0.477631 0.517401
33 2 0.510056 0.47057 0.504323
68 2 0.509621 0.483935 0.497047
116 2 0.498029 0.489038 0.525791
24 2 0.503548 0.475567 0.518254
48 2 0.516986 0.483145 0.523157
132 2 0.508647 0.492455 0.513429
22 2 0.522232 0.483353 0.507221
29 1 0.538193 0.479395 0.499097
117 1 0.533703 0.476998 0.518946
26 2 0.536708 0.500728 0.518675
51 1 0.465429 0.519787 0.508059
128 2 0.456213 0.505917 0.509048
27 1 0.464392 0.512712 0.522606
76 2 0.493205 0.519377 0.50815
85 2 0.496286 0.505041 0.519502
81 2 0.500122 0.500276 0.503636
10 2 0.492673 0.521004 0.527109
6 2 0.482202 0.497947 0.526093
83 2 0.479682 0.513369 0.516159
125 2 0.480622 0.528288 0.507324
114 2 0.51654 0.499839 0.500376
60 2 0.509808 0.510347 0.512763
52 2 0.505493 0.524842 0.518879
88 2 0.527987 0.512692 0.50701
55 2 0.517207 0.524439 0.506937
106 2 0.52299 0.506469 0.521566
108 2 0.521674 0.521376 0.524907
14 2 0.507276 0.511689 0.530705
56 2 0.535558 0.493164 0.506672
119 1 0.543168 0.507476 0.504788
42 1 0.537533 0.518979 0.520126
77 1 0.475277 0.526326 0.525496
46 1 0.491552 0.537011 0.514956
75 1 0.505404 0.546882 0.50971
43 1 0.516493 0.539155 0.520467
135 1 0.529844 0.532201 0.513626
61 1 0.50878 0.466066 0.533257
139 1 0.459106 0.4953 0.524987
15 2 0.482987 0.487801 0.53783
44 1 0.493956 0.474802 0.537562
31 1 0.500365 0.49041 0.544601
11 2 0.511135 0.496724 0.530453
87 1 0.511115 0.480332 0.536935
4 2 0.530784 0.488763 0.532778
138 1 0.520497 0.494107 0.546797
105 1 0.525165 0.47184 0.534681
97 2 0.493673 0.503186 0.536103
1 1 0.471242 0.498411 0.538666
127 1 0.479604 0.513792 0.538062
54 2 0.496882 0.519324 0.543207
17 1 0.510331 0.506609 0.546814
28 1 0.524257 0.508704 0.539238
80 1 0.509917 0.528861 0.535322
ITEM: TIMESTEP
9960000
ITEM: NUMBER OF ATOMS
141
ITEM: BOX BOUNDS pp pp pp
0.0000000000000000e+00 1.4356000000000000e+02
0.0000000000000000e+00 1.4356000000000000e+02
0.0000000000000000e+00 1.4356000000000000e+02
ITEM: ATOMS id type xs ys zs
53 1 0.502838 0.468375 0.462148
79 1 0.465651 0.503184 0.47264
136 1 0.474646 0.489745 0.463281
21 1 0.492446 0.482666 0.458468
38 1 0.480873 0.475354 0.467332
107 1 0.518947 0.471089 0.462298
18 1 0.511755 0.487679 0.456237
70 1 0.538269 0.474354 0.466074
103 2 0.504582 0.491502 0.469686
39 1 0.530046 0.488268 0.465905
98 1 0.498253 0.498382 0.453966
113 1 0.46115 0.519405 0.472965
30 1 0.494387 0.513035 0.459234
89 1 0.476087 0.511911 0.462295
45 1 0.485438 0.526821 0.464684
66 2 0.489311 0.498503 0.467909
41 1 0.509669 0.514608 0.455721
9 2 0.519265 0.504337 0.464246
69 2 0.506671 0.507414 0.470843
93 2 0.506301 0.525358 0.471008
7 2 0.486275 0.463308 0.491657
62 1 0.491497 0.467219 0.475901
65 1 0.520838 0.454061 0.4898
67 2 0.503857 0.459863 0.484228
50 1 0.526243 0.462358 0.473855
100 1 0.538295 0.471642 0.482552
120 1 0.46394 0.483579 0.485301
23 1 0.458887 0.498938 0.489077
90 2 0.458651 0.491379 0.503479
95 2 0.491434 0.483691 0.476981
126 2 0.474638 0.489252 0.498382
84 2 0.49178 0.48752 0.493024
32 2 0.478805 0.495437 0.482059
5 2 0.480137 0.476804 0.485625
81 2 0.503884 0.497326 0.501019
78 2 0.500982 0.474397 0.491485
57 2 0.507125 0.476614 0.474536
86 1 0.523724 0.481811 0.478195
94 2 0.511317 0.485704 0.490584
8 2 0.525758 0.478776 0.494649
109 2 0.529693 0.493458 0.488417
68 2 0.515573 0.486089 0.508832
56 2 0.520866 0.501405 0.503609
33 2 0.515775 0.468775 0.486096
64 2 0.542073 0.484859 0.498735
36 1 0.542867 0.485879 0.477576
37 1 0.451966 0.507128 0.503592
59 1 0.455841 0.517397 0.48881
137 2 0.468814 0.504839 0.500715
63 1 0.475559 0.525118 0.477729
2 2 0.486518 0.522334 0.491757
141 2 0.471247 0.511765 0.486888
13 2 0.484806 0.505326 0.493854
92 2 0.483621 0.509657 0.477395
73 2 0.495951 0.499897 0.484898
40 2 0.497243 0.512683 0.500204
72 2 0.500494 0.534135 0.495235
25 2 0.516473 0.496747 0.479291
102 2 0.499567 0.516689 0.483427
3 2 0.530695 0.509972 0.489615
58 2 0.512349 0.528775 0.485598
114 2 0.512777 0.508483 0.490706
133 2 0.521468 0.515958 0.476829
49 1 0.537588 0.519404 0.479056
111 1 0.53491 0.50322 0.473192
123 1 0.545036 0.499452 0.489268
74 1 0.526523 0.52803 0.491396
51 1 0.459785 0.532836 0.489918
112 1 0.493153 0.534976 0.478451
47 1 0.490696 0.549161 0.499407
134 1 0.507226 0.543501 0.483766
122 2 0.514191 0.538108 0.502002
140 1 0.519848 0.536224 0.47357
19 1 0.466818 0.473323 0.49855
129 2 0.490735 0.468046 0.513279
130 1 0.503675 0.45865 0.522709
104 2 0.498499 0.460071 0.500668
101 1 0.512781 0.454672 0.510741
61 1 0.524046 0.467834 0.516131
16 1 0.455203 0.496177 0.520562
139 1 0.465445 0.484215 0.528819
124 1 0.458581 0.477768 0.514677
91 2 0.489655 0.493961 0.510356
118 2 0.476051 0.48122 0.514324
71 2 0.48202 0.491957 0.527005
99 2 0.48476 0.476652 0.502202
110 2 0.493256 0.479772 0.523839
12 2 0.494716 0.506955 0.51862
131 2 0.513154 0.470266 0.502665
35 2 0.500036 0.480435 0.507161
24 2 0.509584 0.475907 0.521816
48 2 0.521481 0.487647 0.525226
132 2 0.505183 0.493834 0.519525
22 2 0.530892 0.481463 0.50977
116 2 0.509043 0.48878 0.534424
29 1 0.533106 0.465714 0.502553
117 1 0.5363 0.477029 0.523971
26 2 0.537616 0.503895 0.503681
34 2 0.465436 0.511471 0.515386
128 2 0.475775 0.524329 0.514592
6 2 0.480841 0.508884 0.52511
76 2 0.482791 0.509382 0.509299
10 2 0.485877 0.532196 0.502665
83 2 0.472255 0.495698 0.515808
125 2 0.472594 0.521892 0.500006
106 2 0.527795 0.501369 0.520015
52 2 0.495283 0.522669 0.512643
60 2 0.510053 0.509246 0.513895
55 2 0.512035 0.521531 0.501723
108 2 0.515573 0.521281 0.523461
11 2 0.5135 0.503825 0.52963
88 2 0.524743 0.514072 0.508865
20 2 0.525896 0.529028 0.510302
119 1 0.53921 0.524146 0.502637
42 1 0.538515 0.515343 0.519113
121 1 0.478533 0.538836 0.490027
82 1 0.485033 0.539313 0.517019
77 1 0.457001 0.523856 0.505275
135 1 0.513823 0.528498 0.539076
96 2 0.500547 0.538381 0.511
75 1 0.517105 0.538322 0.520808
43 1 0.501504 0.53526 0.530351
44 1 0.4891 0.46473 0.531066
115 1 0.478244 0.476297 0.53109
15 2 0.493047 0.485502 0.540498
31 1 0.511014 0.495892 0.550127
87 1 0.503763 0.471127 0.537237
105 1 0.521505 0.477477 0.539854
138 1 0.526088 0.497882 0.538989
4 2 0.540725 0.492023 0.516028
27 1 0.467985 0.501409 0.532816
127 1 0.46864 0.520539 0.530179
85 2 0.497805 0.500729 0.536439
1 1 0.480731 0.496214 0.542777
97 2 0.482917 0.511921 0.540941
54 2 0.485268 0.525918 0.529171
14 2 0.502083 0.518833 0.527422
17 1 0.513153 0.512343 0.545315
28 1 0.526969 0.514044 0.532006
46 1 0.495857 0.521815 0.543817
80 1 0.471436 0.537928 0.505059
ITEM: TIMESTEP
9965000
ITEM: NUMBER OF ATOMS
141
ITEM: BOX BOUNDS pp pp pp
0.0000000000000000e+00 1.4356000000000000e+02
0.0000000000000000e+00 1.4356000000000000e+02
0.0000000000000000e+00 1.4356000000000000e+02
ITEM: ATOMS id type xs ys zs
53 1 0.511679 0.470203 0.463117
103 2 0.493148 0.472827 0.469483
98 1 0.494533 0.494695 0.457324
18 1 0.510468 0.49067 0.45686
39 1 0.526133 0.485291 0.462722
30 1 0.488468 0.512299 0.454932
63 1 0.483483 0.523655 0.469168
92 2 0.481304 0.501853 0.468194
45 1 0.500092 0.524371 0.463848
9 2 0.523655 0.502465 0.466974
41 1 0.509603 0.506897 0.458413
38 1 0.475893 0.463144 0.492738
62 1 0.505335 0.464025 0.47764
7 2 0.490805 0.461231 0.484688
21 1 0.479585 0.463476 0.472412
67 2 0.491195 0.462636 0.504697
65 1 0.51983 0.45804 0.484025
33 2 0.502281 0.452772 0.495964
50 1 0.534842 0.466409 0.48928
136 1 0.46609 0.476008 0.480254
79 1 0.460989 0.479985 0.495613
126 2 0.471678 0.495819 0.497302
23 1 0.459563 0.495088 0.486361
66 2 0.48114 0.48468 0.465836
120 1 0.477833 0.479031 0.497052
95 2 0.485852 0.476368 0.483028
84 2 0.488715 0.488947 0.492256
32 2 0.475944 0.492329 0.48132
73 2 0.492988 0.493212 0.47573
5 2 0.495504 0.474494 0.495233
107 1 0.522282 0.473652 0.475546
57 2 0.506592 0.481438 0.473912
25 2 0.508629 0.498331 0.472257
78 2 0.506004 0.490175 0.487059
86 1 0.522381 0.490434 0.479294
94 2 0.518217 0.495293 0.4969
131 2 0.511257 0.473906 0.490548
70 1 0.536181 0.481785 0.478217
29 1 0.543211 0.480692 0.496241
8 2 0.533574 0.495819 0.488967
36 1 0.541295 0.499654 0.47351
100 1 0.550851 0.490479 0.483359
89 1 0.464006 0.495405 0.469231
113 1 0.456135 0.510699 0.477153
77 1 0.455228 0.510385 0.494993
141 2 0.469628 0.509537 0.486479
125 2 0.462722 0.524882 0.483968
2 2 0.470367 0.513869 0.466563
13 2 0.485859 0.507652 0.482585
40 2 0.479142 0.522918 0.492711
102 2 0.496061 0.521632 0.481644
72 2 0.505874 0.530026 0.496407
69 2 0.495663 0.510094 0.469465
93 2 0.514143 0.524886 0.484435
109 2 0.522419 0.508038 0.484572
58 2 0.521161 0.521123 0.511039
114 2 0.503941 0.506857 0.486837
133 2 0.511564 0.515356 0.472096
3 2 0.524052 0.521369 0.495174
49 1 0.518521 0.52942 0.468123
111 1 0.531051 0.51731 0.471098
64 2 0.538619 0.510856 0.490333
123 1 0.535978 0.529196 0.483828
26 2 0.528291 0.507205 0.503278
59 1 0.494175 0.54083 0.490968
51 1 0.484096 0.534967 0.48069
121 1 0.502179 0.536837 0.476228
80 1 0.477149 0.541275 0.496125
47 1 0.504114 0.544524 0.50313
112 1 0.521852 0.54006 0.481492
140 1 0.522078 0.537261 0.513789
19 1 0.462051 0.480955 0.513758
129 2 0.475165 0.469864 0.510528
104 2 0.501284 0.459719 0.518966
44 1 0.486985 0.46871 0.523794
130 1 0.512929 0.448571 0.50872
87 1 0.500674 0.468264 0.533995
24 2 0.505586 0.467567 0.504159
117 1 0.518009 0.46401 0.518183
101 1 0.520615 0.46325 0.50005
83 2 0.468189 0.496914 0.514991
91 2 0.484008 0.494584 0.509261
118 2 0.478703 0.481164 0.51941
71 2 0.481361 0.495175 0.526219
99 2 0.492198 0.480585 0.510605
110 2 0.493936 0.484431 0.529334
132 2 0.49997 0.495632 0.516114
35 2 0.504998 0.484285 0.502552
68 2 0.518999 0.480669 0.507861
116 2 0.525842 0.480879 0.493344
11 2 0.513765 0.490402 0.524141
15 2 0.50551 0.476183 0.519599
81 2 0.498631 0.499868 0.500172
61 1 0.545887 0.489517 0.516953
22 2 0.533961 0.472475 0.508794
106 2 0.532248 0.49217 0.508107
28 1 0.531173 0.494757 0.52474
90 2 0.457328 0.494827 0.502923
124 1 0.461414 0.505389 0.528648
16 1 0.460627 0.523087 0.516553
37 1 0.451261 0.508067 0.514344
137 2 0.466402 0.509775 0.507059
34 2 0.463823 0.526539 0.500974
76 2 0.482308 0.508304 0.499038
55 2 0.494991 0.517697 0.496618
12 2 0.491983 0.511938 0.511517
128 2 0.477526 0.522044 0.509441
6 2 0.477682 0.509632 0.520224
54 2 0.493845 0.523537 0.525378
127 1 0.477297 0.526247 0.526019
56 2 0.510714 0.512839 0.500843
60 2 0.508252 0.511623 0.521941
88 2 0.515852 0.500124 0.510932
122 2 0.504515 0.524026 0.511818
20 2 0.524516 0.511338 0.521218
108 2 0.517088 0.504469 0.533421
4 2 0.546382 0.497456 0.501407
119 1 0.539586 0.520633 0.506317
42 1 0.54164 0.506312 0.517974
52 2 0.491092 0.532086 0.507954
82 1 0.47165 0.536677 0.511038
43 1 0.489027 0.547492 0.507864
96 2 0.487772 0.5393 0.522568
75 1 0.516452 0.526285 0.529068
10 2 0.505223 0.535869 0.521441
134 1 0.535433 0.523159 0.521846
74 1 0.520361 0.539718 0.497528
139 1 0.467177 0.483575 0.529069
115 1 0.484909 0.479349 0.54028
1 1 0.471934 0.494618 0.542403
85 2 0.501983 0.49783 0.53447
48 2 0.527146 0.479012 0.522088
105 1 0.503574 0.481803 0.544174
138 1 0.515842 0.475004 0.534824
97 2 0.492447 0.50796 0.527938
27 1 0.472844 0.511145 0.539237
46 1 0.488544 0.517501 0.541666
135 1 0.502611 0.533033 0.536461
31 1 0.488126 0.498252 0.542699
14 2 0.505254 0.515565 0.537869
17 1 0.525539 0.488501 0.538359
ITEM: TIMESTEP
9970000
ITEM: NUMBER OF ATOMS
141
ITEM: BOX BOUNDS pp pp pp
0.0000000000000000e+00 1.4356000000000000e+02
0.0000000000000000e+00 1.4356000000000000e+02
0.0000000000000000e+00 1.4356000000000000e+02
ITEM: ATOMS id type xs ys zs
21 1 0.500112 0.477082 0.464326
66 2 0.482769 0.477865 0.462026
98 1 0.481472 0.498291 0.454303
18 1 0.497434 0.492305 0.461019
30 1 0.474327 0.510968 0.462276
45 1 0.491041 0.506297 0.464612
9 2 0.521007 0.500681 0.460776
41 1 0.506145 0.507037 0.455648
49 1 0.489497 0.521898 0.459911
133 2 0.513678 0.514993 0.466845
111 1 0.53195 0.518336 0.464673
63 1 0.4767 0.529377 0.46614
38 1 0.490946 0.46293 0.469036
7 2 0.499632 0.471093 0.479577
33 2 0.494602 0.457931 0.502403
104 2 0.484681 0.459759 0.487156
62 1 0.511481 0.462922 0.471165
65 1 0.501113 0.453507 0.48883
50 1 0.516558 0.452211 0.485572
107 1 0.528966 0.473172 0.479187
29 1 0.526446 0.462782 0.494445
136 1 0.46953 0.478805 0.471446
23 1 0.45954 0.48832 0.485495
120 1 0.470217 0.471193 0.486403
32 2 0.4757 0.486627 0.489021
89 1 0.46715 0.496412 0.468331
77 1 0.458012 0.495031 0.499779
92 2 0.48194 0.49097 0.471445
67 2 0.489882 0.472788 0.49676
95 2 0.48439 0.47623 0.477431
84 2 0.490091 0.488682 0.493711
73 2 0.497225 0.487111 0.477482
5 2 0.503775 0.481676 0.493418
53 1 0.521625 0.475212 0.463388
103 2 0.512929 0.482172 0.476583
57 2 0.513832 0.469124 0.486945
25 2 0.509727 0.494501 0.486485
86 1 0.522054 0.48227 0.492699
81 2 0.500429 0.502543 0.498307
94 2 0.523888 0.498604 0.492309
39 1 0.530318 0.490058 0.476114
70 1 0.537944 0.488918 0.490323
113 1 0.45574 0.503668 0.482339
125 2 0.465778 0.519772 0.480361
80 1 0.471057 0.537061 0.500159
141 2 0.473451 0.502438 0.482239
2 2 0.482084 0.515354 0.477437
13 2 0.493979 0.502903 0.48039
40 2 0.481084 0.522012 0.494288
102 2 0.499111 0.516582 0.473285
76 2 0.485208 0.506692 0.495556
55 2 0.495817 0.517547 0.490268
69 2 0.508711 0.498872 0.470687
112 1 0.524012 0.526441 0.478012
109 2 0.523248 0.505586 0.477171
114 2 0.509452 0.511896 0.484562
3 2 0.523173 0.51616 0.492139
72 2 0.510255 0.527974 0.489328
56 2 0.51022 0.515662 0.50102
36 1 0.537252 0.503823 0.470333
8 2 0.536574 0.506695 0.487895
64 2 0.538972 0.52139 0.482583
100 1 0.53693 0.516453 0.501769
51 1 0.475083 0.533313 0.480636
121 1 0.490188 0.531304 0.476873
52 2 0.486961 0.537634 0.492054
93 2 0.509277 0.529153 0.472443
74 1 0.517758 0.544055 0.487995
47 1 0.500446 0.541424 0.484845
140 1 0.531285 0.531813 0.493003
129 2 0.474029 0.46415 0.501192
87 1 0.480709 0.462869 0.527371
99 2 0.486936 0.47242 0.514637
138 1 0.4988 0.459039 0.520418
130 1 0.511871 0.457887 0.501402
117 1 0.514699 0.465191 0.519944
101 1 0.529545 0.462092 0.510297
126 2 0.474558 0.496165 0.502966
79 1 0.460425 0.477978 0.501376
124 1 0.461295 0.48945 0.514064
19 1 0.468836 0.475649 0.517509
83 2 0.476481 0.502733 0.522922
91 2 0.48847 0.502176 0.511183
118 2 0.476655 0.479025 0.504343
110 2 0.483112 0.488981 0.518687
35 2 0.497066 0.487416 0.508629
78 2 0.51274 0.492268 0.503475
132 2 0.498549 0.490806 0.524298
131 2 0.518427 0.473535 0.504485
24 2 0.502869 0.471315 0.508519
68 2 0.511426 0.483352 0.517161
15 2 0.499382 0.475348 0.524969
88 2 0.505715 0.502549 0.513534
116 2 0.529295 0.487996 0.507661
48 2 0.529868 0.476935 0.51865
61 1 0.541396 0.491706 0.519732
22 2 0.53641 0.475511 0.501648
34 2 0.469037 0.510217 0.495134
90 2 0.465035 0.506309 0.511054
37 1 0.460956 0.520334 0.521603
82 1 0.459885 0.522722 0.504901
71 2 0.492295 0.506275 0.525531
137 2 0.475735 0.517107 0.511035
12 2 0.493646 0.516656 0.506108
128 2 0.484539 0.531 0.509246
6 2 0.477296 0.524533 0.52542
97 2 0.494845 0.52171 0.522581
106 2 0.520421 0.496079 0.519986
11 2 0.508385 0.509586 0.528802
58 2 0.520833 0.526106 0.505294
60 2 0.509013 0.520664 0.516257
20 2 0.521611 0.511435 0.522045
26 2 0.523683 0.507717 0.507638
122 2 0.500323 0.530688 0.500747
4 2 0.539295 0.500169 0.504453
123 1 0.531044 0.523445 0.51689
42 1 0.538805 0.507681 0.520478
127 1 0.489191 0.530693 0.535156
59 1 0.470561 0.537918 0.515641
54 2 0.488224 0.540213 0.521471
43 1 0.495265 0.546095 0.506395
96 2 0.504289 0.53452 0.518892
119 1 0.522777 0.538264 0.517004
10 2 0.512362 0.539853 0.503858
105 1 0.495396 0.466956 0.53807
139 1 0.471267 0.487019 0.53117
44 1 0.484698 0.477968 0.533121
115 1 0.486759 0.493988 0.538496
85 2 0.501612 0.483688 0.540436
108 2 0.511968 0.495526 0.534949
17 1 0.516713 0.477592 0.532099
28 1 0.5306 0.486046 0.531324
16 1 0.468753 0.503015 0.537278
1 1 0.48562 0.513079 0.538685
31 1 0.499702 0.502017 0.545608
46 1 0.500259 0.51997 0.539985
14 2 0.516821 0.51006 0.541953
75 1 0.515716 0.52568 0.531572
135 1 0.530947 0.519384 0.534377
134 1 0.532211 0.502927 0.535338
27 1 0.503673 0.53736 0.536298
ITEM: TIMESTEP
9975000
ITEM: NUMBER OF ATOMS
141
ITEM: BOX BOUNDS pp pp pp
0.0000000000000000e+00 1.4356000000000000e+02
0.0000000000000000e+00 1.4356000000000000e+02
0.0000000000000000e+00 1.4356000000000000e+02
ITEM: ATOMS id type xs ys zs
62 1 0.489129 0.467622 0.467693
107 1 0.505963 0.47028 0.459837
113 1 0.467959 0.500548 0.468967
98 1 0.495032 0.483901 0.45638
136 1 0.471286 0.482806 0.466124
30 1 0.481805 0.491138 0.458929
66 2 0.503163 0.477544 0.47262
73 2 0.499574 0.493046 0.470647
53 1 0.513407 0.488909 0.458045
45 1 0.499066 0.509378 0.471625
49 1 0.494434 0.516979 0.457326
63 1 0.481717 0.518259 0.466587
18 1 0.499806 0.498034 0.455079
69 2 0.514748 0.500938 0.468603
41 1 0.512046 0.514323 0.457854
111 1 0.529919 0.511383 0.465971
47 1 0.494602 0.527521 0.470008
120 1 0.462176 0.463964 0.494354
104 2 0.478166 0.458249 0.493162
65 1 0.489439 0.452694 0.481885
67 2 0.497904 0.471921 0.499911
130 1 0.493033 0.455089 0.498416
7 2 0.493034 0.47082 0.483841
21 1 0.521116 0.474802 0.467885
50 1 0.504292 0.460864 0.474192
57 2 0.510535 0.472265 0.487926
86 1 0.519497 0.460763 0.480629
101 1 0.509219 0.456715 0.491018
89 1 0.461674 0.478491 0.482201
23 1 0.459817 0.497074 0.485369
95 2 0.466772 0.48705 0.496673
38 1 0.47471 0.467219 0.477437
32 2 0.474841 0.489654 0.48237
92 2 0.487013 0.484293 0.475209
118 2 0.479914 0.477068 0.492918
84 2 0.490716 0.488757 0.497005
5 2 0.501213 0.487154 0.486252
103 2 0.517468 0.488026 0.48093
25 2 0.509169 0.50209 0.48406
131 2 0.507233 0.484433 0.501112
22 2 0.523417 0.48061 0.495801
36 1 0.529418 0.489852 0.470434
94 2 0.533993 0.488757 0.48671
39 1 0.532563 0.47025 0.480861
70 1 0.540368 0.47624 0.495147
82 1 0.458602 0.514097 0.47951
40 2 0.470431 0.52576 0.484765
34 2 0.476775 0.49968 0.498597
80 1 0.461642 0.514268 0.494558
125 2 0.474872 0.507178 0.485119
141 2 0.483395 0.502635 0.469651
2 2 0.486999 0.519229 0.481207
52 2 0.48358 0.528056 0.494499
13 2 0.490515 0.501853 0.485335
76 2 0.490103 0.513101 0.497324
78 2 0.520632 0.495769 0.495474
112 1 0.529997 0.526068 0.475478
9 2 0.516191 0.51538 0.475574
102 2 0.496563 0.531729 0.485045
81 2 0.501368 0.500569 0.498015
109 2 0.525696 0.502865 0.482094
114 2 0.503657 0.515892 0.487149
64 2 0.522759 0.518625 0.489901
8 2 0.541165 0.509276 0.481496
4 2 0.534875 0.507369 0.496594
51 1 0.481106 0.53574 0.47632
121 1 0.499915 0.543948 0.473953
43 1 0.47316 0.540202 0.494277
96 2 0.489419 0.5429 0.499298
133 2 0.510003 0.527949 0.467019
93 2 0.513867 0.53156 0.483503
74 1 0.533656 0.532247 0.493859
33 2 0.485806 0.469899 0.511632
87 1 0.502195 0.474902 0.542007
138 1 0.502148 0.464937 0.515125
117 1 0.523848 0.46414 0.515895
29 1 0.528008 0.464032 0.495316
129 2 0.470559 0.471292 0.507482
77 1 0.457199 0.498519 0.503262
79 1 0.464104 0.486446 0.518601
139 1 0.472611 0.484936 0.534686
99 2 0.494438 0.474932 0.525646
19 1 0.469588 0.472727 0.525884
126 2 0.47888 0.483958 0.508383
110 2 0.483423 0.487424 0.524332
35 2 0.49544 0.48636 0.511995
24 2 0.514561 0.469252 0.503286
68 2 0.524169 0.48471 0.511173
15 2 0.509555 0.480093 0.517635
88 2 0.507545 0.498762 0.512109
108 2 0.517879 0.494487 0.524409
105 1 0.51248 0.467023 0.528083
132 2 0.495702 0.502553 0.525027
48 2 0.537704 0.471169 0.511604
116 2 0.537539 0.491271 0.503594
28 1 0.537774 0.489147 0.521141
124 1 0.45357 0.499 0.518955
37 1 0.460093 0.514834 0.514629
90 2 0.472025 0.499898 0.514588
91 2 0.488489 0.501762 0.509785
6 2 0.471556 0.524606 0.521073
71 2 0.483032 0.512993 0.520365
137 2 0.475053 0.514175 0.506386
12 2 0.499798 0.513761 0.51328
97 2 0.496085 0.523981 0.524725
128 2 0.487316 0.524619 0.51119
55 2 0.501036 0.526977 0.50095
106 2 0.525481 0.501258 0.508858
3 2 0.526791 0.518895 0.507899
72 2 0.517732 0.531165 0.501022
56 2 0.512307 0.512962 0.50266
58 2 0.509867 0.527017 0.515426
26 2 0.517997 0.512348 0.519665
20 2 0.531099 0.504368 0.525074
61 1 0.545021 0.504964 0.511696
100 1 0.540898 0.520433 0.503862
42 1 0.537391 0.520628 0.522255
59 1 0.465821 0.526898 0.50339
60 2 0.484953 0.534858 0.525812
54 2 0.478301 0.538997 0.510779
10 2 0.498882 0.538323 0.513655
122 2 0.506999 0.542754 0.495765
123 1 0.521746 0.529316 0.526184
119 1 0.515988 0.542258 0.515295
140 1 0.530492 0.534427 0.51183
44 1 0.485931 0.480522 0.542287
85 2 0.501322 0.488073 0.530107
17 1 0.525641 0.475686 0.52933
134 1 0.515975 0.484865 0.539977
31 1 0.498448 0.498119 0.546442
135 1 0.524251 0.50062 0.53992
83 2 0.471453 0.503795 0.529981
115 1 0.485578 0.497389 0.537885
16 1 0.478756 0.523249 0.537314
11 2 0.509692 0.520883 0.532842
1 1 0.492419 0.513571 0.540844
46 1 0.506261 0.511405 0.548735
14 2 0.508579 0.504226 0.534429
75 1 0.527022 0.516331 0.534726
127 1 0.496273 0.528416 0.541394
27 1 0.505915 0.537436 0.530611
ITEM: TIMESTEP
9980000
ITEM: NUMBER OF ATOMS
141
ITEM: BOX BOUNDS pp pp pp
0.0000000000000000e+00 1.4356000000000000e+02
0.0000000000000000e+00 1.4356000000000000e+02
0.0000000000000000e+00 1.4356000000000000e+02
ITEM: ATOMS id type xs ys zs
107 1 0.49498 0.475019 0.464466
53 1 0.508769 0.467699 0.464896
136 1 0.478143 0.48127 0.465227
98 1 0.489489 0.492737 0.462095
30 1 0.475832 0.499584 0.468023
69 2 0.507964 0.486613 0.462424
41 1 0.529098 0.500609 0.458861
113 1 0.469257 0.513763 0.47175
49 1 0.488012 0.508661 0.458802
47 1 0.486197 0.526655 0.466787
18 1 0.5042 0.503598 0.457049
141 2 0.498727 0.506405 0.473679
45 1 0.500342 0.519975 0.461967
133 2 0.514704 0.526202 0.470767
9 2 0.518285 0.512109 0.465189
121 1 0.500044 0.538167 0.467364
62 1 0.504278 0.455918 0.474069
120 1 0.486622 0.464028 0.47488
65 1 0.491093 0.454643 0.488209
104 2 0.474533 0.461007 0.48989
67 2 0.50274 0.463853 0.498318
21 1 0.518356 0.464231 0.477443
50 1 0.514376 0.449676 0.490064
86 1 0.533665 0.474422 0.482593
101 1 0.519014 0.466895 0.495578
38 1 0.47147 0.471762 0.477143
23 1 0.460985 0.493634 0.494508
89 1 0.46968 0.488896 0.479623
95 2 0.472454 0.478264 0.494924
7 2 0.501938 0.471112 0.479725
92 2 0.498731 0.489176 0.476952
118 2 0.485688 0.482196 0.480634
84 2 0.478279 0.493982 0.4992
13 2 0.4885 0.499121 0.485288
129 2 0.48842 0.470847 0.492398
73 2 0.514916 0.498239 0.472944
5 2 0.492516 0.48726 0.49445
66 2 0.51659 0.479921 0.479876
57 2 0.505309 0.479967 0.493551
103 2 0.528243 0.49147 0.482845