ITEM: TIMESTEP
8300000
ITEM: NUMBER OF ATOMS
141
ITEM: BOX BOUNDS pp pp pp
0.0000000000000000e+00 1.4356000000000000e+02
0.0000000000000000e+00 1.4356000000000000e+02
0.0000000000000000e+00 1.4356000000000000e+02
ITEM: ATOMS id type xs ys zs
86 1 0.479329 0.490237 0.458429
135 1 0.494304 0.47266 0.459053
11 2 0.497911 0.490895 0.455749
31 1 0.480963 0.474216 0.469663
45 1 0.51035 0.479116 0.455863
134 1 0.517508 0.494465 0.455806
106 2 0.509841 0.486074 0.470031
29 1 0.5252 0.477914 0.469921
56 2 0.525941 0.497789 0.469506
63 1 0.487577 0.505945 0.452687
27 1 0.473965 0.507987 0.463353
61 1 0.488266 0.522769 0.463288
99 2 0.491433 0.503306 0.468057
44 1 0.504412 0.519641 0.464347
37 1 0.505367 0.504889 0.451949
40 2 0.508647 0.502629 0.469581
112 1 0.519297 0.512752 0.463732
82 1 0.518598 0.529659 0.467005
49 1 0.491298 0.462518 0.471558
28 1 0.477248 0.461481 0.481828
7 2 0.497961 0.460018 0.499521
87 1 0.471317 0.466683 0.495828
23 1 0.500949 0.454922 0.48338
90 2 0.510027 0.467304 0.492622
110 2 0.512605 0.452119 0.496344
121 1 0.519548 0.458091 0.481891
139 1 0.507231 0.469963 0.473722
18 1 0.467966 0.485003 0.471567
120 1 0.463297 0.485204 0.488264
131 2 0.495635 0.471664 0.488055
126 2 0.478017 0.496326 0.491836
26 2 0.478751 0.478568 0.485185
48 2 0.482304 0.492398 0.476251
55 2 0.491234 0.486701 0.491949
122 2 0.496855 0.497248 0.481914
8 2 0.495593 0.482289 0.473337
58 2 0.521157 0.475247 0.48427
33 2 0.508136 0.484557 0.489039
97 2 0.515178 0.49729 0.484674
137 2 0.527947 0.490157 0.48988
5 2 0.501226 0.497852 0.499334
46 1 0.540746 0.478785 0.493418
59 1 0.538899 0.485291 0.479049
70 1 0.467093 0.50287 0.475633
57 2 0.461478 0.504658 0.491673
130 1 0.464516 0.519044 0.483873
117 1 0.4555 0.518871 0.499119
65 1 0.475317 0.522642 0.472738
20 2 0.496742 0.514216 0.478525
9 2 0.48338 0.508382 0.48212
73 2 0.473653 0.512878 0.497383
54 2 0.488672 0.51042 0.499366
3 2 0.483641 0.523613 0.48756
76 2 0.499846 0.525718 0.492011
95 2 0.505822 0.509317 0.49
85 2 0.519339 0.505565 0.497779
96 2 0.521036 0.511686 0.48336
129 2 0.516761 0.523126 0.496711
136 1 0.511562 0.523343 0.479829
91 2 0.53136 0.517033 0.495171
36 1 0.535225 0.504213 0.481618
17 1 0.53131 0.52277 0.476575
109 2 0.539796 0.502863 0.495557
138 1 0.466937 0.530752 0.494945
32 2 0.476572 0.537846 0.483757
30 1 0.491697 0.541607 0.490703
50 1 0.49536 0.532218 0.475987
140 1 0.503112 0.548731 0.498791
115 1 0.509237 0.540196 0.484186
123 1 0.526289 0.533248 0.488651
88 2 0.516696 0.539249 0.499575
100 1 0.482156 0.455353 0.502938
113 1 0.473408 0.468311 0.513129
124 1 0.493728 0.462354 0.515338
104 2 0.509953 0.465658 0.508492
108 2 0.50688 0.461011 0.524294
62 1 0.526815 0.459271 0.502482
89 1 0.529897 0.470056 0.516279
16 1 0.461975 0.478318 0.506839
71 2 0.461378 0.493461 0.519043
119 1 0.454196 0.494547 0.502715
118 2 0.469684 0.475084 0.528608
68 2 0.473617 0.498866 0.505789
128 2 0.477382 0.483484 0.501577
34 2 0.49416 0.478695 0.522453
13 2 0.487713 0.472938 0.505225
132 2 0.488654 0.490647 0.509224
141 2 0.477037 0.483162 0.517845
94 2 0.492338 0.494576 0.528155
2 2 0.476835 0.49972 0.522557
84 2 0.503012 0.481092 0.504838
78 2 0.521289 0.476495 0.500741
83 2 0.504101 0.491475 0.519145
69 2 0.514165 0.478903 0.517438
52 2 0.515696 0.49054 0.506727
25 2 0.521495 0.492031 0.522618
72 2 0.528651 0.499144 0.51048
24 2 0.533986 0.484066 0.508083
101 1 0.546522 0.499572 0.509686
42 1 0.534987 0.486111 0.528221
51 1 0.462059 0.510743 0.514784
41 1 0.466396 0.528069 0.511103
125 2 0.493182 0.505836 0.515376
103 2 0.479389 0.514067 0.511734
15 2 0.473101 0.522201 0.524882
60 2 0.49426 0.52275 0.517797
6 2 0.486763 0.511791 0.528031
4 2 0.50368 0.515758 0.505927
10 2 0.503723 0.512802 0.528154
114 2 0.512684 0.504377 0.513655
14 2 0.527348 0.513921 0.51146
102 2 0.5192 0.512319 0.525878
81 2 0.512425 0.523341 0.515159
35 2 0.538239 0.50456 0.524719
22 2 0.540849 0.517176 0.507789
53 1 0.533052 0.525142 0.522722
64 2 0.482532 0.530104 0.502652
67 2 0.499507 0.533574 0.506589
12 2 0.485036 0.537467 0.51741
77 1 0.485671 0.548681 0.503885
47 1 0.498266 0.547159 0.514734
92 2 0.528448 0.529988 0.507117
98 1 0.519118 0.538412 0.516923
79 1 0.50187 0.534509 0.526299
75 1 0.483496 0.466014 0.530361
21 1 0.518864 0.470571 0.531633
74 1 0.47009 0.490703 0.534075
127 1 0.481872 0.498563 0.543213
19 1 0.485759 0.482025 0.537975
133 2 0.510326 0.498477 0.531979
66 2 0.502127 0.474901 0.53484
93 2 0.501388 0.489415 0.544994
1 1 0.518466 0.48436 0.538022
107 1 0.526418 0.499393 0.535506
80 1 0.470524 0.509378 0.536039
116 2 0.485867 0.527193 0.533739
38 1 0.496981 0.505866 0.541749
43 1 0.517703 0.529353 0.529972
39 1 0.516108 0.515413 0.543092
111 1 0.502946 0.525208 0.541034
105 1 0.534069 0.515276 0.535597
ITEM: TIMESTEP
8305000
ITEM: NUMBER OF ATOMS
141
ITEM: BOX BOUNDS pp pp pp
0.0000000000000000e+00 1.4356000000000000e+02
0.0000000000000000e+00 1.4356000000000000e+02
0.0000000000000000e+00 1.4356000000000000e+02
ITEM: ATOMS id type xs ys zs
49 1 0.51649 0.474985 0.456307
31 1 0.484208 0.473127 0.462203
11 2 0.494848 0.496979 0.460821
135 1 0.504661 0.486285 0.454231
45 1 0.521057 0.489575 0.462937
134 1 0.511749 0.502483 0.456903
106 2 0.50872 0.499947 0.472456
29 1 0.539741 0.486657 0.473255
27 1 0.477134 0.489732 0.464407
63 1 0.479774 0.509605 0.464533
86 1 0.492773 0.512598 0.454624
37 1 0.508732 0.518896 0.457603
44 1 0.524686 0.51662 0.457052
61 1 0.487168 0.52425 0.464208
82 1 0.517293 0.534129 0.473461
28 1 0.499631 0.467746 0.467081
23 1 0.473892 0.459435 0.494457
100 1 0.483119 0.462834 0.479166
131 2 0.498808 0.47495 0.483622
121 1 0.495691 0.456846 0.494051
139 1 0.525365 0.475189 0.472925
110 2 0.509239 0.46727 0.496205
46 1 0.510826 0.464015 0.47967
62 1 0.525993 0.466124 0.489459
18 1 0.463113 0.487934 0.476736
87 1 0.462077 0.469695 0.501372
120 1 0.465006 0.470425 0.485927
126 2 0.472987 0.483371 0.494109
70 1 0.464017 0.498788 0.491282
119 1 0.455943 0.4841 0.492372
26 2 0.486585 0.47227 0.493783
48 2 0.478188 0.479774 0.479066
55 2 0.487004 0.488066 0.488979
8 2 0.493536 0.484559 0.471824
33 2 0.500544 0.482232 0.499504
5 2 0.500292 0.497934 0.499589
90 2 0.509526 0.481484 0.473851
58 2 0.523152 0.490583 0.480702
97 2 0.503178 0.492022 0.484125
78 2 0.515854 0.480173 0.489787
137 2 0.530962 0.495286 0.494896
59 1 0.535006 0.480299 0.487455
36 1 0.538475 0.50399 0.484233
65 1 0.462998 0.505221 0.475029
130 1 0.45435 0.51387 0.486204
99 2 0.483987 0.515554 0.480316
122 2 0.491264 0.501215 0.475503
20 2 0.500273 0.51467 0.47307
9 2 0.476619 0.498055 0.481225
54 2 0.489254 0.507868 0.492636
3 2 0.470816 0.513047 0.491715
32 2 0.468725 0.521122 0.476356
73 2 0.477086 0.498824 0.500089
76 2 0.497339 0.524777 0.485945
64 2 0.484294 0.524318 0.494488
40 2 0.516798 0.512236 0.471196
112 1 0.530802 0.501523 0.471467
95 2 0.504679 0.508823 0.487471
96 2 0.531983 0.519657 0.47303
129 2 0.51209 0.526102 0.499983
136 1 0.51579 0.522539 0.485164
56 2 0.521583 0.506386 0.487038
91 2 0.527386 0.519391 0.496018
17 1 0.540966 0.508719 0.499925
30 1 0.482609 0.533059 0.479031
140 1 0.493223 0.541472 0.487324
77 1 0.469509 0.533473 0.491912
50 1 0.501737 0.530577 0.470784
123 1 0.531009 0.532273 0.483543
115 1 0.508506 0.537744 0.486417
7 2 0.495565 0.469312 0.509027
113 1 0.48429 0.457607 0.507461
19 1 0.491399 0.459381 0.522161
104 2 0.507953 0.459097 0.512439
89 1 0.523979 0.465016 0.506112
69 2 0.526954 0.479984 0.501688
24 2 0.538419 0.480004 0.514788
57 2 0.463564 0.486299 0.508505
16 1 0.462716 0.472529 0.519004
71 2 0.461986 0.491427 0.524653
128 2 0.489027 0.488168 0.507283
124 1 0.47815 0.46928 0.528533
34 2 0.491018 0.478843 0.520221
13 2 0.477401 0.474476 0.507723
132 2 0.504435 0.490782 0.515071
141 2 0.476014 0.485921 0.519465
94 2 0.491713 0.494906 0.523059
84 2 0.511458 0.476481 0.5101
83 2 0.513036 0.485449 0.527652
52 2 0.514992 0.491709 0.500364
25 2 0.522656 0.486163 0.515279
72 2 0.518591 0.500905 0.519952
108 2 0.505362 0.47099 0.524582
109 2 0.528274 0.505099 0.50785
101 1 0.545152 0.489107 0.501507
42 1 0.521085 0.468979 0.523318
35 2 0.539133 0.496974 0.518063
138 1 0.461548 0.525462 0.502336
117 1 0.457925 0.507907 0.505124
51 1 0.460639 0.52042 0.518448
68 2 0.469293 0.503271 0.516716
125 2 0.488579 0.505255 0.51135
103 2 0.477125 0.516515 0.505529
60 2 0.491053 0.521374 0.515044
6 2 0.477649 0.51626 0.522495
4 2 0.498841 0.515923 0.501918
85 2 0.514633 0.510022 0.50199
114 2 0.504733 0.511075 0.516789
14 2 0.522018 0.518411 0.515739
102 2 0.513591 0.516262 0.529772
105 1 0.532005 0.508301 0.528953
92 2 0.538341 0.526643 0.50583
133 2 0.507444 0.501041 0.531569
22 2 0.538945 0.51526 0.515942
41 1 0.47501 0.532602 0.516034
15 2 0.49182 0.538536 0.520594
12 2 0.482588 0.538429 0.502088
47 1 0.510668 0.544754 0.503871
67 2 0.498 0.532101 0.5024
81 2 0.505065 0.527909 0.516682
88 2 0.525838 0.535914 0.497867
53 1 0.531694 0.525595 0.528204
98 1 0.52286 0.534658 0.514899
75 1 0.495183 0.467695 0.537458
74 1 0.483456 0.483018 0.534699
118 2 0.477963 0.499107 0.531361
21 1 0.514999 0.4753 0.540449
66 2 0.499789 0.484336 0.536559
93 2 0.493301 0.499259 0.540232
1 1 0.511482 0.491666 0.548267
107 1 0.530109 0.480389 0.528972
2 2 0.464934 0.510638 0.531564
80 1 0.482737 0.52919 0.531922
127 1 0.482149 0.513864 0.540329
116 2 0.498594 0.52553 0.530626
10 2 0.491504 0.510213 0.527087
38 1 0.5047 0.513674 0.543861
39 1 0.523173 0.494826 0.537664
111 1 0.521716 0.511019 0.543673
79 1 0.50767 0.543164 0.521782
43 1 0.514788 0.533773 0.532666
ITEM: TIMESTEP
8310000
ITEM: NUMBER OF ATOMS
141
ITEM: BOX BOUNDS pp pp pp
0.0000000000000000e+00 1.4356000000000000e+02
0.0000000000000000e+00 1.4356000000000000e+02
0.0000000000000000e+00 1.4356000000000000e+02
ITEM: ATOMS id type xs ys zs
65 1 0.470136 0.500069 0.459003
28 1 0.475467 0.483785 0.463561
11 2 0.486187 0.497443 0.465774
135 1 0.497852 0.483544 0.460161
45 1 0.514312 0.492805 0.459002
49 1 0.528687 0.47276 0.473235
29 1 0.539007 0.490571 0.477582
86 1 0.500682 0.505217 0.459181
63 1 0.48537 0.50859 0.454291
61 1 0.472422 0.515204 0.464121
20 2 0.488827 0.52214 0.464553
134 1 0.518834 0.511321 0.458194
44 1 0.523598 0.525593 0.469336
112 1 0.530816 0.498135 0.462501
50 1 0.496737 0.535521 0.474507
37 1 0.507966 0.522913 0.460873
46 1 0.492974 0.468813 0.46632
23 1 0.489943 0.456998 0.489988
100 1 0.500336 0.458014 0.47527
26 2 0.498732 0.467154 0.502399
31 1 0.482039 0.467236 0.478281
121 1 0.510303 0.457256 0.491249
62 1 0.515015 0.468304 0.48073
69 2 0.526887 0.46523 0.493067
120 1 0.464156 0.477519 0.498082
18 1 0.44986 0.501706 0.480833
119 1 0.45679 0.488289 0.487724
27 1 0.460344 0.490639 0.470012
106 2 0.501071 0.49637 0.473758
48 2 0.474414 0.48201 0.480141
55 2 0.488321 0.497122 0.485237
8 2 0.491312 0.482954 0.476502
122 2 0.472188 0.498323 0.477039
126 2 0.488003 0.479961 0.494544
73 2 0.475509 0.491444 0.492119
90 2 0.510081 0.481983 0.473831
131 2 0.499298 0.471297 0.486304
58 2 0.520931 0.493082 0.475941
97 2 0.503606 0.487582 0.488958
78 2 0.523369 0.481464 0.486867
52 2 0.517781 0.489838 0.500094
139 1 0.541016 0.476639 0.486748
59 1 0.545221 0.489117 0.49753
137 2 0.531775 0.495784 0.491757
9 2 0.464596 0.504158 0.492882
130 1 0.450513 0.518328 0.490876
32 2 0.461778 0.510989 0.47754
70 1 0.449055 0.500718 0.498133
77 1 0.460581 0.527742 0.504209
99 2 0.485208 0.510164 0.474882
54 2 0.47992 0.512628 0.489754
3 2 0.480571 0.524129 0.502834
4 2 0.491753 0.524268 0.491032
64 2 0.479737 0.52674 0.478142
95 2 0.500331 0.509252 0.486545
40 2 0.512464 0.507179 0.473235
76 2 0.500797 0.520014 0.475765
56 2 0.515466 0.501492 0.48934
96 2 0.515979 0.519608 0.483965
91 2 0.529057 0.511795 0.492796
36 1 0.529858 0.509774 0.475031
17 1 0.544374 0.514925 0.485888
30 1 0.465499 0.524828 0.486748
12 2 0.488004 0.540348 0.490589
140 1 0.503292 0.546611 0.48875
82 1 0.531439 0.526024 0.484721
67 2 0.505067 0.531063 0.493209
115 1 0.512462 0.535372 0.478048
15 2 0.521749 0.53748 0.491211
13 2 0.480941 0.466366 0.499443
19 1 0.486094 0.455771 0.514706
124 1 0.470369 0.468841 0.510839
113 1 0.502707 0.450846 0.507627
89 1 0.518494 0.459365 0.508842
104 2 0.504355 0.46436 0.519692
42 1 0.523244 0.464323 0.52443
24 2 0.533403 0.466552 0.510209
87 1 0.460496 0.480637 0.515423
57 2 0.464374 0.495259 0.506901
71 2 0.471848 0.491068 0.522444
7 2 0.487301 0.47223 0.514388
128 2 0.487181 0.4981 0.503263
34 2 0.488163 0.489384 0.519108
141 2 0.476704 0.484525 0.50868
94 2 0.503368 0.494822 0.529321
110 2 0.513157 0.473361 0.497216
33 2 0.499666 0.483475 0.505964
5 2 0.503151 0.500655 0.500287
132 2 0.510341 0.492473 0.513656
84 2 0.516295 0.474641 0.514365
108 2 0.500854 0.479073 0.521296
83 2 0.516599 0.484122 0.526756
109 2 0.529867 0.490998 0.512783
25 2 0.532961 0.480679 0.499859
107 1 0.535322 0.478036 0.523009
35 2 0.546306 0.490715 0.513984
117 1 0.45611 0.511664 0.508424
51 1 0.462956 0.504957 0.523246
68 2 0.473023 0.510693 0.505204
80 1 0.468916 0.520663 0.518182
118 2 0.480084 0.50501 0.521422
125 2 0.491413 0.51359 0.503088
103 2 0.485765 0.519471 0.518188
114 2 0.499053 0.506409 0.516604
81 2 0.501535 0.525745 0.52105
129 2 0.507848 0.516521 0.499207
136 1 0.522445 0.524391 0.500881
72 2 0.518823 0.502195 0.523138
85 2 0.523592 0.50424 0.506198
14 2 0.514495 0.514596 0.51367
88 2 0.518163 0.531311 0.514818
60 2 0.510677 0.544856 0.505397
123 1 0.540528 0.526436 0.501641
22 2 0.534752 0.506121 0.518935
101 1 0.541238 0.506612 0.503191
92 2 0.532002 0.522741 0.515936
138 1 0.478537 0.539937 0.507173
41 1 0.496605 0.533555 0.50688
116 2 0.486926 0.535928 0.520472
47 1 0.528505 0.540192 0.507643
79 1 0.494032 0.54924 0.504881
43 1 0.501684 0.54299 0.520835
16 1 0.493105 0.46516 0.530142
74 1 0.476152 0.475836 0.526725
66 2 0.489266 0.480769 0.535641
10 2 0.494383 0.494122 0.544086
93 2 0.504296 0.505441 0.546662
75 1 0.508848 0.469618 0.535996
21 1 0.525328 0.477895 0.538837
1 1 0.509724 0.485696 0.543244
39 1 0.532374 0.492679 0.529377
2 2 0.480584 0.495211 0.536019
6 2 0.493083 0.506645 0.531576
127 1 0.475409 0.513746 0.535139
38 1 0.489406 0.51322 0.548336
105 1 0.487614 0.525778 0.533761
53 1 0.525447 0.515486 0.530283
98 1 0.514622 0.527311 0.530617
102 2 0.507495 0.512305 0.531666
133 2 0.517706 0.499497 0.539074
111 1 0.500855 0.522696 0.542607
ITEM: TIMESTEP
8315000
ITEM: NUMBER OF ATOMS
141
ITEM: BOX BOUNDS pp pp pp
0.0000000000000000e+00 1.4356000000000000e+02
0.0000000000000000e+00 1.4356000000000000e+02
0.0000000000000000e+00 1.4356000000000000e+02
ITEM: ATOMS id type xs ys zs
65 1 0.467615 0.494817 0.467872
28 1 0.480697 0.479691 0.462851
135 1 0.477157 0.494078 0.455283
46 1 0.495353 0.479007 0.453941
37 1 0.484497 0.510407 0.445635
49 1 0.511819 0.472908 0.467523
45 1 0.495993 0.495252 0.455786
139 1 0.527153 0.483939 0.468432
112 1 0.511812 0.489631 0.459751
58 2 0.522607 0.499551 0.465896
63 1 0.479614 0.508276 0.462976
106 2 0.502609 0.502093 0.471399
61 1 0.48193 0.523008 0.471874
20 2 0.495741 0.513812 0.459839
12 2 0.496883 0.530616 0.468969
86 1 0.510507 0.505784 0.456754
134 1 0.525271 0.515712 0.465447
50 1 0.509026 0.523829 0.457353
76 2 0.507691 0.516451 0.47402
44 1 0.533286 0.528154 0.470433
31 1 0.479897 0.463921 0.480465
23 1 0.496188 0.456108 0.487549
100 1 0.491672 0.468475 0.468792
113 1 0.481315 0.458449 0.502451
121 1 0.511429 0.459482 0.476973
26 2 0.510409 0.462583 0.494554
89 1 0.524096 0.456168 0.48981
27 1 0.47164 0.480149 0.47822
18 1 0.465227 0.489426 0.491434
122 2 0.478816 0.497083 0.482128
90 2 0.499711 0.484819 0.470157
120 1 0.471682 0.473488 0.493601
48 2 0.488388 0.481712 0.480615
8 2 0.497198 0.49384 0.485113
11 2 0.485556 0.494395 0.469875
13 2 0.489929 0.471282 0.492933
126 2 0.485053 0.488277 0.495311
131 2 0.505161 0.474357 0.483716
62 1 0.523828 0.470868 0.481616
97 2 0.512254 0.48842 0.477918
110 2 0.517388 0.478598 0.494878
78 2 0.526128 0.492361 0.484966
95 2 0.51325 0.495565 0.492994
29 1 0.540968 0.490784 0.476797
69 2 0.533969 0.479105 0.493943
137 2 0.539444 0.498059 0.495357
9 2 0.467244 0.505591 0.492879
32 2 0.470342 0.511899 0.476654
55 2 0.482737 0.508354 0.494395
99 2 0.487651 0.509356 0.478392
54 2 0.480342 0.521309 0.504722
64 2 0.479774 0.524285 0.486537
41 1 0.497201 0.524466 0.484652
5 2 0.497045 0.500411 0.498363
125 2 0.496751 0.517038 0.499612
4 2 0.503616 0.509268 0.488181
40 2 0.516948 0.506425 0.481952
56 2 0.527939 0.50909 0.494195
96 2 0.521954 0.521269 0.480525
129 2 0.515146 0.505989 0.505028
15 2 0.524525 0.522756 0.507591
36 1 0.531829 0.529077 0.494496
17 1 0.53279 0.507535 0.477729
82 1 0.542016 0.516578 0.494508
130 1 0.461286 0.520386 0.487618
138 1 0.473018 0.53553 0.497012
79 1 0.488984 0.538161 0.481201
116 2 0.489991 0.533741 0.496309
67 2 0.514008 0.521363 0.49389
140 1 0.515005 0.533485 0.470846
115 1 0.52561 0.54243 0.483508
43 1 0.508337 0.538151 0.487652
124 1 0.466168 0.464157 0.514182
19 1 0.483734 0.465546 0.517549
104 2 0.497592 0.463616 0.504139
75 1 0.503776 0.46386 0.528091
42 1 0.510524 0.454715 0.51217
24 2 0.526208 0.46662 0.503369
119 1 0.466665 0.480661 0.508471
57 2 0.463306 0.48972 0.52273
73 2 0.4763 0.495085 0.506474
7 2 0.483185 0.477308 0.507145
34 2 0.493091 0.492408 0.513223
141 2 0.480816 0.481167 0.522135
66 2 0.497379 0.476852 0.517761
118 2 0.47821 0.497654 0.521884
33 2 0.499943 0.482683 0.499817
52 2 0.509168 0.490827 0.508644
108 2 0.511593 0.473809 0.510258
132 2 0.503665 0.493346 0.525694
84 2 0.523985 0.482762 0.515325
83 2 0.512314 0.478928 0.525165
109 2 0.519474 0.49781 0.521132
21 1 0.522665 0.46683 0.522003
59 1 0.540268 0.485077 0.508158
35 2 0.534952 0.495756 0.520509
25 2 0.5252 0.492341 0.503751
107 1 0.538202 0.469988 0.514396
30 1 0.451603 0.511117 0.504114
70 1 0.458551 0.495818 0.504285
117 1 0.453204 0.504649 0.518384
51 1 0.465382 0.506675 0.532246
68 2 0.469147 0.50995 0.511027
77 1 0.460428 0.5209 0.521063
128 2 0.487401 0.507639 0.512122
103 2 0.478598 0.515052 0.524625
114 2 0.503441 0.507813 0.516077
14 2 0.491304 0.523747 0.515022
6 2 0.491964 0.507791 0.52738
91 2 0.530589 0.506311 0.509282
136 1 0.509144 0.524147 0.512791
85 2 0.519759 0.513969 0.519246
92 2 0.534583 0.517295 0.524341
47 1 0.523555 0.532461 0.519804
123 1 0.540826 0.523746 0.510517
101 1 0.547041 0.505404 0.509695
3 2 0.463002 0.52386 0.50279
80 1 0.4743 0.532036 0.516905
81 2 0.487736 0.541528 0.50817
60 2 0.519404 0.536016 0.501178
88 2 0.503519 0.538392 0.507754
98 1 0.491693 0.541611 0.523284
74 1 0.469411 0.472288 0.528381
16 1 0.486756 0.473323 0.535428
87 1 0.473428 0.486844 0.537722
2 2 0.488899 0.490016 0.531649
10 2 0.500347 0.481536 0.538459
93 2 0.499244 0.501494 0.543065
1 1 0.515867 0.471982 0.539489
133 2 0.516681 0.494193 0.539624
39 1 0.529289 0.483453 0.530762
22 2 0.524446 0.508562 0.535133
102 2 0.50042 0.52223 0.529989
71 2 0.479524 0.504385 0.540343
127 1 0.470145 0.52359 0.536498
38 1 0.491836 0.516616 0.545135
105 1 0.486861 0.529237 0.534254
72 2 0.508397 0.535835 0.524487
94 2 0.509518 0.507401 0.531569
53 1 0.517849 0.525034 0.533297
111 1 0.508305 0.516352 0.543977
ITEM: TIMESTEP
8320000
ITEM: NUMBER OF ATOMS
141
ITEM: BOX BOUNDS pp pp pp
0.0000000000000000e+00 1.4356000000000000e+02
0.0000000000000000e+00 1.4356000000000000e+02
0.0000000000000000e+00 1.4356000000000000e+02
ITEM: ATOMS id type xs ys zs
121 1 0.506884 0.47098 0.464729
100 1 0.491088 0.480913 0.462905
135 1 0.476841 0.49546 0.465882
46 1 0.505811 0.489387 0.45437
65 1 0.472004 0.480549 0.469679
11 2 0.491736 0.496387 0.47458
49 1 0.521432 0.480883 0.466392
112 1 0.521562 0.495113 0.457923
139 1 0.531326 0.49323 0.471755
106 2 0.5104 0.494472 0.469927
45 1 0.493173 0.501536 0.45828
37 1 0.485263 0.519375 0.458745
63 1 0.471852 0.511227 0.463678
50 1 0.500438 0.524001 0.465632
58 2 0.521041 0.507689 0.471042
86 1 0.509052 0.510812 0.456017
134 1 0.516809 0.523344 0.466262
31 1 0.486448 0.466871 0.469429
113 1 0.490705 0.456829 0.49977
120 1 0.47471 0.470928 0.483136
23 1 0.486434 0.458205 0.483346
89 1 0.500542 0.45277 0.486736
78 2 0.526199 0.460471 0.488999
28 1 0.462152 0.493188 0.47591
27 1 0.461302 0.481154 0.48813
126 2 0.462096 0.49465 0.496846
13 2 0.498722 0.468775 0.480871
48 2 0.486091 0.482777 0.479136
8 2 0.494067 0.491967 0.490105
7 2 0.490102 0.473374 0.493833
73 2 0.477939 0.486137 0.493049
62 1 0.532673 0.47581 0.480875
131 2 0.514897 0.469754 0.481512
33 2 0.504557 0.481261 0.492282
90 2 0.501294 0.483204 0.474094
97 2 0.518495 0.486906 0.483919
110 2 0.522805 0.47546 0.496582
25 2 0.533299 0.487932 0.494304
29 1 0.547369 0.48729 0.484405
82 1 0.546941 0.497301 0.496884
18 1 0.452521 0.507381 0.491499
9 2 0.470406 0.510932 0.496802
32 2 0.467233 0.511423 0.47962
130 1 0.46681 0.527914 0.488495
61 1 0.470563 0.525901 0.469021
20 2 0.485363 0.511108 0.474142
122 2 0.477991 0.500757 0.483496
99 2 0.493088 0.509433 0.487836
64 2 0.479833 0.517461 0.487829
41 1 0.496006 0.524438 0.482842
95 2 0.508894 0.500788 0.485075
12 2 0.505283 0.537005 0.471597
76 2 0.502641 0.507966 0.470333
4 2 0.504222 0.516612 0.497268
40 2 0.525521 0.501891 0.487523
96 2 0.511518 0.51835 0.480872
56 2 0.519891 0.515057 0.494467
17 1 0.542061 0.503697 0.479921
36 1 0.541923 0.51404 0.493915
44 1 0.5286 0.51849 0.479834
115 1 0.532095 0.528851 0.492836
138 1 0.475633 0.538986 0.481513
79 1 0.486971 0.5326 0.473078
116 2 0.487281 0.531329 0.495043
43 1 0.492537 0.543457 0.484467
67 2 0.506168 0.536984 0.491451
140 1 0.519729 0.533379 0.482394
47 1 0.523631 0.544699 0.49491
88 2 0.496503 0.544582 0.503589
57 2 0.470597 0.478438 0.520648
74 1 0.483321 0.46904 0.523675
124 1 0.476197 0.459814 0.51056
19 1 0.491034 0.45232 0.51602
75 1 0.498962 0.462565 0.530238
26 2 0.507876 0.465926 0.497796
42 1 0.507326 0.456455 0.510505
24 2 0.512504 0.470124 0.519832
69 2 0.522405 0.461547 0.5046
107 1 0.516025 0.470317 0.536181
119 1 0.466081 0.465478 0.496862
70 1 0.46188 0.480637 0.505982
104 2 0.493749 0.469975 0.511511
34 2 0.494951 0.486557 0.507004
141 2 0.479937 0.47599 0.506667
118 2 0.484915 0.485925 0.520343
68 2 0.47153 0.493622 0.512036
66 2 0.497319 0.479689 0.525174
132 2 0.505657 0.496097 0.516174
108 2 0.509942 0.479692 0.508309
52 2 0.514749 0.493443 0.500925
84 2 0.526799 0.474067 0.514279
83 2 0.512548 0.486996 0.527712
109 2 0.522739 0.489588 0.514093
137 2 0.537728 0.472983 0.501063
59 1 0.53864 0.486413 0.509469
101 1 0.540958 0.495625 0.522293
117 1 0.45545 0.503646 0.510156
30 1 0.462213 0.518276 0.512264
77 1 0.462974 0.505861 0.52476
55 2 0.483803 0.501022 0.500039
3 2 0.473359 0.528542 0.5026
54 2 0.4762 0.512096 0.513973
125 2 0.48774 0.517646 0.503927
5 2 0.500987 0.500935 0.501923
128 2 0.491255 0.5019 0.515682
103 2 0.481296 0.498838 0.528431
14 2 0.488003 0.522721 0.518415
91 2 0.530309 0.502876 0.50444
129 2 0.515474 0.507989 0.509431
15 2 0.51787 0.527799 0.501385
114 2 0.501451 0.512736 0.514446
85 2 0.516569 0.522217 0.519352
102 2 0.50242 0.525624 0.527531
94 2 0.509836 0.509698 0.527362
22 2 0.528483 0.509282 0.521374
35 2 0.530413 0.518332 0.506289
123 1 0.546014 0.504477 0.511217
53 1 0.530661 0.525737 0.526291
80 1 0.471524 0.530537 0.520584
81 2 0.48537 0.536495 0.511358
136 1 0.501514 0.529842 0.507315
98 1 0.500762 0.54346 0.519775
60 2 0.512901 0.54413 0.507819
72 2 0.514196 0.537311 0.52648
92 2 0.527088 0.537337 0.514352
21 1 0.503456 0.482401 0.541601
51 1 0.458096 0.490959 0.521726
16 1 0.487367 0.47442 0.540912
87 1 0.473943 0.484177 0.537314
2 2 0.495412 0.493881 0.532743
10 2 0.50741 0.500502 0.541831
1 1 0.519855 0.487807 0.544899
39 1 0.528184 0.4806 0.530509
6 2 0.49221 0.510113 0.529626
71 2 0.484522 0.50926 0.545668
127 1 0.473889 0.515252 0.53196
38 1 0.487185 0.525171 0.537591
133 2 0.526479 0.49733 0.531451
93 2 0.502278 0.515373 0.541785
111 1 0.517091 0.523444 0.536651
105 1 0.48564 0.537828 0.529353
ITEM: TIMESTEP
8325000
ITEM: NUMBER OF ATOMS
141
ITEM: BOX BOUNDS pp pp pp
0.0000000000000000e+00 1.4356000000000000e+02
0.0000000000000000e+00 1.4356000000000000e+02
0.0000000000000000e+00 1.4356000000000000e+02
ITEM: ATOMS id type xs ys zs
65 1 0.48894 0.465201 0.477447
11 2 0.492196 0.494976 0.472353
31 1 0.490047 0.48078 0.468749
100 1 0.499563 0.493094 0.458198
121 1 0.504767 0.473209 0.463172
46 1 0.519126 0.486727 0.461143
112 1 0.523838 0.504018 0.462468
49 1 0.532856 0.484031 0.471755
135 1 0.47584 0.493535 0.465761
50 1 0.498069 0.512996 0.458582
79 1 0.480554 0.523154 0.465199
45 1 0.510228 0.503825 0.451118
106 2 0.508348 0.504402 0.468698
86 1 0.5174 0.519657 0.464771
134 1 0.512468 0.538133 0.472117
23 1 0.46753 0.463453 0.500826
13 2 0.503404 0.472307 0.481589
42 1 0.499164 0.45619 0.488572
78 2 0.506442 0.459245 0.503769
131 2 0.516923 0.464014 0.487651
62 1 0.51868 0.474562 0.473082
26 2 0.497708 0.474786 0.497739
119 1 0.458021 0.482355 0.505597
28 1 0.464284 0.49183 0.479229
27 1 0.461896 0.476418 0.489237
117 1 0.453789 0.491858 0.49241
120 1 0.474311 0.464382 0.482256
122 2 0.475918 0.479535 0.477529
48 2 0.490195 0.485781 0.485487
7 2 0.481591 0.47402 0.492774
73 2 0.472121 0.490072 0.492927
55 2 0.481445 0.504268 0.501316
33 2 0.507747 0.4862 0.491928
90 2 0.507038 0.487277 0.473842
97 2 0.521053 0.495001 0.477621
110 2 0.525162 0.481828 0.486783
95 2 0.514477 0.502495 0.492755
40 2 0.530682 0.496445 0.489629
139 1 0.537742 0.500862 0.474211
29 1 0.544173 0.486988 0.483106
82 1 0.54771 0.499086 0.500409
37 1 0.471779 0.508863 0.470036
63 1 0.45604 0.50597 0.475966
61 1 0.467885 0.528587 0.475325
130 1 0.459575 0.520745 0.490665
8 2 0.502299 0.500917 0.484303
32 2 0.48185 0.50094 0.484944
20 2 0.489608 0.512475 0.473779
99 2 0.492333 0.514683 0.491101
64 2 0.476499 0.516625 0.482744
12 2 0.497083 0.528422 0.463878
116 2 0.490852 0.52857 0.496805
67 2 0.489613 0.529254 0.48034
3 2 0.466777 0.505999 0.49193
58 2 0.520577 0.510435 0.479587
76 2 0.504506 0.518589 0.476044
96 2 0.51987 0.526583 0.482563
56 2 0.525722 0.515769 0.494514
15 2 0.517344 0.531161 0.499303
4 2 0.50755 0.51754 0.495267
44 1 0.535776 0.5178 0.477732
17 1 0.542041 0.511419 0.492041
115 1 0.535788 0.529611 0.488466
138 1 0.474537 0.532898 0.489492
41 1 0.478236 0.542676 0.475559
88 2 0.489397 0.544197 0.488734
43 1 0.49699 0.543915 0.473268
140 1 0.514335 0.547811 0.489491
60 2 0.50458 0.534059 0.486941
47 1 0.526343 0.542839 0.50175
89 1 0.482648 0.457149 0.496327
113 1 0.473043 0.464397 0.518701
124 1 0.480339 0.47321 0.529939
104 2 0.487195 0.470296 0.510947
74 1 0.490176 0.459473 0.526898
19 1 0.489742 0.453099 0.512377
69 2 0.5249 0.460346 0.503849
75 1 0.508986 0.45599 0.520296
137 2 0.533359 0.46961 0.494081
126 2 0.466959 0.496576 0.507324
70 1 0.448791 0.49768 0.508537
57 2 0.465623 0.481461 0.520308
68 2 0.479301 0.49068 0.51656
141 2 0.474339 0.477392 0.507506
34 2 0.486462 0.486553 0.502585
118 2 0.493119 0.480524 0.523668
128 2 0.490201 0.500499 0.514672
5 2 0.497255 0.49864 0.499566
66 2 0.503102 0.470613 0.516068
52 2 0.519245 0.488686 0.502219
132 2 0.501229 0.485832 0.508726
108 2 0.514227 0.473529 0.501307
83 2 0.51368 0.483884 0.517715
24 2 0.518369 0.468194 0.519092
84 2 0.527183 0.475864 0.509675
114 2 0.503653 0.495398 0.524941
109 2 0.525817 0.493856 0.517915
25 2 0.535532 0.485691 0.499865
59 1 0.539309 0.48413 0.517739
123 1 0.541244 0.500419 0.519584
51 1 0.462556 0.498837 0.524496
18 1 0.460762 0.51292 0.506544
30 1 0.475782 0.520472 0.499709
77 1 0.464521 0.518345 0.523413
103 2 0.476341 0.50386 0.531476
9 2 0.473691 0.507816 0.51587
54 2 0.485234 0.529095 0.513948
125 2 0.491109 0.515897 0.507104
136 1 0.503665 0.527725 0.508773
6 2 0.485113 0.514447 0.523201
14 2 0.501405 0.513034 0.519871
129 2 0.508881 0.500426 0.509723
85 2 0.516113 0.514639 0.510462
94 2 0.518538 0.506204 0.524518
111 1 0.525464 0.5216 0.531522
101 1 0.535183 0.507556 0.533351
35 2 0.532376 0.524125 0.506048
36 1 0.54422 0.513229 0.509942
22 2 0.531061 0.513864 0.518554
91 2 0.531257 0.504468 0.505271
80 1 0.465223 0.528858 0.510781
81 2 0.47887 0.540392 0.503902
98 1 0.495625 0.542362 0.505514
105 1 0.497798 0.536555 0.521832
53 1 0.525671 0.531567 0.518367
72 2 0.510447 0.527777 0.524008
92 2 0.512736 0.540473 0.512147
107 1 0.511168 0.465254 0.534542
87 1 0.470084 0.488769 0.534953
16 1 0.494539 0.470514 0.538045
71 2 0.488606 0.49021 0.535006
2 2 0.505727 0.481221 0.534271
21 1 0.51436 0.475861 0.546221
1 1 0.524216 0.478553 0.530605
10 2 0.503028 0.497583 0.54184
39 1 0.535128 0.491483 0.533616
127 1 0.477219 0.529709 0.528802
38 1 0.495433 0.524656 0.533785
93 2 0.492111 0.505335 0.53417
102 2 0.508027 0.514438 0.534994
133 2 0.519011 0.492143 0.536452
ITEM: TIMESTEP
8330000
ITEM: NUMBER OF ATOMS
141
ITEM: BOX BOUNDS pp pp pp
0.0000000000000000e+00 1.4356000000000000e+02
0.0000000000000000e+00 1.4356000000000000e+02
0.0000000000000000e+00 1.4356000000000000e+02
ITEM: ATOMS id type xs ys zs
65 1 0.487796 0.469564 0.454431
62 1 0.519783 0.468239 0.470895
31 1 0.496402 0.503304 0.453004
11 2 0.501443 0.492849 0.470688
135 1 0.473395 0.473813 0.463822
100 1 0.496723 0.48472 0.456322
122 2 0.48544 0.479945 0.472549
46 1 0.512246 0.482236 0.463844
112 1 0.52655 0.499649 0.460784
45 1 0.509887 0.496479 0.455282
121 1 0.500484 0.469025 0.465742
50 1 0.497377 0.520558 0.454587
37 1 0.479704 0.509868 0.458338
43 1 0.484005 0.525827 0.464553
106 2 0.509161 0.507755 0.468054
86 1 0.524686 0.531948 0.476135
12 2 0.514031 0.52295 0.462904
23 1 0.474946 0.461046 0.490815
120 1 0.487721 0.461795 0.476222
89 1 0.493451 0.457042 0.492485
42 1 0.504359 0.464237 0.482508
131 2 0.520477 0.465151 0.489152
28 1 0.466656 0.487852 0.474642
119 1 0.458004 0.486984 0.488095
117 1 0.45719 0.505999 0.483312
27 1 0.471015 0.472034 0.479914
73 2 0.478763 0.487445 0.488183
48 2 0.488508 0.499486 0.48345
7 2 0.486715 0.47404 0.487497
90 2 0.499618 0.48012 0.480536
113 1 0.466534 0.474116 0.4991
132 2 0.494163 0.486312 0.494377
69 2 0.517755 0.47827 0.498994
13 2 0.502451 0.473538 0.495025
33 2 0.509633 0.490316 0.490185
97 2 0.518152 0.496235 0.475905
110 2 0.515905 0.48007 0.480853
40 2 0.525464 0.491567 0.489245
49 1 0.530179 0.483744 0.469816
29 1 0.532203 0.474845 0.483151