ITEM: TIMESTEP
1150000
ITEM: NUMBER OF ATOMS
141
ITEM: BOX BOUNDS pp pp pp
0.0000000000000000e+00 1.4356000000000000e+02
0.0000000000000000e+00 1.4356000000000000e+02
0.0000000000000000e+00 1.4356000000000000e+02
ITEM: ATOMS id type xs ys zs
47 1 0.50522 0.46942 0.467874
75 1 0.483172 0.495811 0.459898
45 1 0.479135 0.478216 0.46598
116 2 0.494801 0.481545 0.460763
117 1 0.501072 0.496332 0.456847
59 1 0.511407 0.486296 0.46405
77 1 0.52883 0.490902 0.464824
23 1 0.470606 0.508709 0.462138
113 1 0.490751 0.511498 0.457438
27 1 0.500981 0.526765 0.463303
55 2 0.503955 0.508711 0.467978
43 1 0.516187 0.501177 0.453684
28 1 0.517818 0.518371 0.464543
58 2 0.470917 0.467051 0.495674
107 1 0.48644 0.459713 0.495562
16 1 0.479666 0.465848 0.480467
130 1 0.498522 0.460707 0.479951
17 1 0.504745 0.452226 0.495027
49 1 0.515935 0.460137 0.479678
78 2 0.521994 0.459351 0.498261
85 2 0.469504 0.494284 0.470684
125 2 0.457726 0.493121 0.486993
140 1 0.459976 0.479798 0.497472
25 2 0.467765 0.481836 0.481552
132 2 0.499253 0.491309 0.473513
6 2 0.472665 0.492325 0.494096
24 2 0.48306 0.488449 0.479254
137 2 0.483273 0.478626 0.492209
110 2 0.493428 0.475808 0.477571
3 2 0.498512 0.486965 0.489088
102 2 0.499872 0.499893 0.498777
13 2 0.503632 0.471125 0.490887
129 2 0.52439 0.472062 0.470715
72 2 0.512019 0.482159 0.481299
84 2 0.514543 0.495162 0.49201
15 2 0.517848 0.477033 0.495746
8 2 0.525565 0.490266 0.482977
11 2 0.514598 0.498681 0.474412
94 2 0.531629 0.470847 0.486729
18 1 0.538242 0.480055 0.473688
29 1 0.53987 0.486497 0.49122
54 2 0.541097 0.499292 0.479678
70 1 0.456107 0.50672 0.474213
20 2 0.458471 0.512074 0.489711
111 1 0.464265 0.521875 0.475849
139 1 0.466403 0.524733 0.495861
26 2 0.483187 0.52165 0.471034
97 2 0.472322 0.506353 0.481914
5 2 0.485562 0.500424 0.489549
126 2 0.486075 0.50446 0.473074
83 2 0.480954 0.518611 0.487387
35 2 0.49447 0.516076 0.495399
90 2 0.498474 0.521172 0.478154
9 2 0.5025 0.504504 0.484434
12 2 0.513698 0.515376 0.481499
91 2 0.525003 0.521239 0.494605
33 2 0.512943 0.51043 0.497989
106 2 0.5282 0.505648 0.489363
60 2 0.507284 0.526285 0.494286
56 2 0.527164 0.523507 0.477497
87 1 0.529615 0.507138 0.471039
44 1 0.542256 0.502895 0.498514
1 1 0.540971 0.51574 0.486119
114 2 0.488862 0.532378 0.491935
79 1 0.473983 0.533578 0.482659
134 1 0.492698 0.537264 0.474315
52 2 0.503791 0.540062 0.4879
100 1 0.520433 0.537241 0.490234
39 1 0.510747 0.531415 0.475704
46 1 0.537834 0.533842 0.489028
63 1 0.479916 0.461459 0.51389
80 1 0.49461 0.455983 0.508929
131 2 0.490654 0.467211 0.523291
31 1 0.511268 0.449917 0.510526
51 1 0.522838 0.462482 0.514541
105 1 0.506471 0.462725 0.521623
81 2 0.507181 0.466449 0.505911
32 2 0.460445 0.48434 0.513854
92 2 0.458308 0.498393 0.502228
19 1 0.471973 0.474332 0.523852
67 2 0.47311 0.494785 0.511911
57 2 0.487396 0.490364 0.501874
7 2 0.491804 0.473574 0.507861
122 2 0.474492 0.478664 0.507566
118 2 0.484034 0.485145 0.519165
14 2 0.496816 0.49514 0.513631
22 2 0.502943 0.479256 0.520445
71 2 0.503638 0.482999 0.503842
141 2 0.517332 0.48092 0.512628
103 2 0.511503 0.494518 0.524987
109 2 0.51432 0.49711 0.50845
115 1 0.527959 0.491792 0.502241
104 2 0.527737 0.494814 0.520485
4 2 0.517366 0.477488 0.528636
120 1 0.531082 0.475246 0.503947
136 1 0.533471 0.478029 0.520268
101 1 0.544362 0.488988 0.510962
135 1 0.459054 0.501788 0.518893
53 1 0.457519 0.515559 0.508003
119 1 0.46744 0.527634 0.511868
10 2 0.47241 0.508122 0.500758
69 2 0.473923 0.511367 0.516477
128 2 0.483954 0.501524 0.525586
66 2 0.480908 0.521487 0.502675
68 2 0.486052 0.50547 0.508705
34 2 0.487728 0.518914 0.519236
64 2 0.499984 0.50697 0.526093
127 1 0.475269 0.525214 0.526108
76 2 0.502268 0.51096 0.509847
108 2 0.50476 0.52522 0.52202
93 2 0.515834 0.510505 0.5211
88 2 0.516464 0.524044 0.50897
96 2 0.526206 0.508792 0.506394
95 2 0.529305 0.522254 0.516654
41 1 0.539883 0.52075 0.504394
138 1 0.541182 0.507408 0.514477
74 1 0.477962 0.538124 0.502788
40 2 0.496303 0.529597 0.50706
30 1 0.49527 0.546601 0.502165
82 1 0.484236 0.536379 0.51642
98 1 0.500408 0.542148 0.520336
50 1 0.517029 0.53844 0.519678
48 2 0.510638 0.539556 0.504981
36 1 0.528055 0.535959 0.504161
37 1 0.468714 0.490427 0.532626
73 2 0.49426 0.490962 0.532048
21 1 0.483201 0.478953 0.536819
123 1 0.493877 0.48726 0.548755
61 1 0.482325 0.499425 0.542759
86 1 0.499429 0.474036 0.5367
112 1 0.509212 0.488353 0.541603
42 1 0.525503 0.492129 0.537017
121 1 0.468307 0.506944 0.533763
99 2 0.486908 0.514966 0.535484
38 1 0.498322 0.504462 0.545045
133 2 0.51555 0.505641 0.536872
124 1 0.521974 0.522078 0.531837
2 2 0.503548 0.519024 0.537982
65 1 0.532347 0.506565 0.531437
89 1 0.49183 0.531052 0.532068
62 1 0.509237 0.537437 0.534972
ITEM: TIMESTEP
1155000
ITEM: NUMBER OF ATOMS
141
ITEM: BOX BOUNDS pp pp pp
0.0000000000000000e+00 1.4356000000000000e+02
0.0000000000000000e+00 1.4356000000000000e+02
0.0000000000000000e+00 1.4356000000000000e+02
ITEM: ATOMS id type xs ys zs
75 1 0.485193 0.495693 0.463688
45 1 0.478442 0.479866 0.467221
116 2 0.4948 0.479071 0.463005
117 1 0.497849 0.49546 0.453461
47 1 0.508182 0.469536 0.466282
59 1 0.513492 0.484985 0.463669
77 1 0.529909 0.492425 0.468083
129 2 0.524803 0.473775 0.473337
23 1 0.471293 0.511311 0.464188
113 1 0.488705 0.511967 0.456768
26 2 0.480926 0.522384 0.469711
27 1 0.495801 0.529093 0.4638
55 2 0.502807 0.508768 0.468468
43 1 0.515043 0.502619 0.460023
28 1 0.51554 0.519987 0.462082
87 1 0.527382 0.509998 0.471183
58 2 0.472438 0.469096 0.494804
107 1 0.488671 0.458498 0.494297
16 1 0.48135 0.466122 0.479281
130 1 0.499956 0.457884 0.481694
17 1 0.505795 0.454768 0.496901
49 1 0.515621 0.462801 0.482735
85 2 0.470136 0.495397 0.472647
125 2 0.457814 0.49515 0.484206
140 1 0.458586 0.481992 0.498755
25 2 0.471125 0.480882 0.482879
92 2 0.461936 0.499612 0.500934
132 2 0.50016 0.492242 0.470542
6 2 0.475108 0.491439 0.493399
24 2 0.484576 0.490183 0.479915
137 2 0.485594 0.476368 0.491916
110 2 0.494868 0.474221 0.47808
3 2 0.49929 0.487307 0.487703
94 2 0.532608 0.4701 0.489492
13 2 0.50113 0.470183 0.49321
72 2 0.511045 0.479313 0.479938
84 2 0.513577 0.493542 0.49115
15 2 0.519408 0.477912 0.494613
8 2 0.526809 0.486115 0.484058
11 2 0.514793 0.496628 0.475675
18 1 0.541577 0.479444 0.479294
29 1 0.545674 0.487229 0.49331
54 2 0.53939 0.496639 0.481953
115 1 0.531599 0.490839 0.499587
70 1 0.458721 0.508018 0.474356
20 2 0.456495 0.511386 0.490132
111 1 0.466145 0.521917 0.480107
139 1 0.466777 0.52544 0.496156
97 2 0.472161 0.505838 0.486909
10 2 0.473272 0.510147 0.501476
102 2 0.500481 0.500382 0.499459
5 2 0.486716 0.502285 0.49192
126 2 0.484336 0.507095 0.476005
83 2 0.480638 0.520204 0.486294
35 2 0.49608 0.51608 0.494603
90 2 0.49589 0.518114 0.478494
9 2 0.501143 0.502822 0.484128
12 2 0.513548 0.516095 0.478734
91 2 0.524759 0.521612 0.490862
33 2 0.512084 0.510403 0.496376
106 2 0.52559 0.504604 0.487775
60 2 0.508373 0.526583 0.48943
56 2 0.526092 0.527534 0.474994
44 1 0.540311 0.503886 0.497308
1 1 0.53874 0.515326 0.483168
114 2 0.490406 0.530916 0.491697
79 1 0.473555 0.536499 0.482874
134 1 0.490823 0.536019 0.477143
52 2 0.502677 0.541903 0.488118
100 1 0.520898 0.53966 0.486537
39 1 0.50883 0.531809 0.472903
46 1 0.53764 0.531616 0.486839
63 1 0.47686 0.461799 0.509298
80 1 0.493843 0.457776 0.510712
131 2 0.488855 0.46912 0.52398
78 2 0.520482 0.462549 0.498248
31 1 0.514715 0.452422 0.51406
51 1 0.527221 0.464603 0.51417
105 1 0.504254 0.460293 0.524848
81 2 0.507291 0.467951 0.508536
32 2 0.462538 0.48651 0.514685
37 1 0.468067 0.490471 0.528553
19 1 0.471121 0.472124 0.52256
67 2 0.474765 0.495998 0.511636
57 2 0.488051 0.489095 0.501545
7 2 0.490433 0.473205 0.507696
122 2 0.47519 0.479962 0.506994
118 2 0.484708 0.485981 0.519489
14 2 0.498118 0.495336 0.514367
22 2 0.500771 0.478821 0.520925
71 2 0.503906 0.483926 0.504529
141 2 0.520404 0.479978 0.510855
103 2 0.511497 0.490113 0.521521
109 2 0.514086 0.496292 0.507503
104 2 0.527616 0.493491 0.516515
4 2 0.516429 0.474588 0.527823
120 1 0.537404 0.475523 0.504089
136 1 0.535631 0.479069 0.521494
101 1 0.543079 0.49159 0.509971
135 1 0.457375 0.503347 0.517113
53 1 0.455163 0.515318 0.505845
119 1 0.468145 0.527645 0.512055
69 2 0.472959 0.513235 0.516971
128 2 0.483837 0.503038 0.5236
66 2 0.484214 0.52317 0.505732
68 2 0.487872 0.506259 0.507448
34 2 0.488037 0.521805 0.52176
40 2 0.49945 0.52824 0.505902
127 1 0.471319 0.523538 0.529875
64 2 0.49978 0.508118 0.528152
76 2 0.502171 0.512222 0.511567
108 2 0.505417 0.525289 0.522642
93 2 0.515576 0.509299 0.520864
88 2 0.515575 0.521604 0.508979
96 2 0.526029 0.507402 0.504569
95 2 0.529187 0.518399 0.517027
41 1 0.540726 0.518987 0.500942
138 1 0.537483 0.506048 0.51668
65 1 0.529287 0.503719 0.532554
74 1 0.475389 0.538835 0.501273
30 1 0.492933 0.542911 0.503228
82 1 0.483007 0.535511 0.519517
98 1 0.499881 0.542364 0.517923
50 1 0.518207 0.537949 0.518299
48 2 0.512717 0.53779 0.501332
36 1 0.529082 0.533665 0.503821
73 2 0.494427 0.491949 0.531938
21 1 0.479392 0.481466 0.536232
123 1 0.492239 0.482937 0.546434
61 1 0.480778 0.498219 0.5408
86 1 0.501903 0.474568 0.536504
112 1 0.508298 0.487547 0.542967
42 1 0.524601 0.487819 0.535402
121 1 0.469355 0.506709 0.531817
99 2 0.485328 0.515089 0.536571
38 1 0.497047 0.501814 0.545314
133 2 0.513311 0.503221 0.536034
124 1 0.520934 0.523196 0.531462
2 2 0.501104 0.517671 0.541287
89 1 0.492142 0.531526 0.535349
62 1 0.510361 0.538197 0.53153
ITEM: TIMESTEP
1160000
ITEM: NUMBER OF ATOMS
141
ITEM: BOX BOUNDS pp pp pp
0.0000000000000000e+00 1.4356000000000000e+02
0.0000000000000000e+00 1.4356000000000000e+02
0.0000000000000000e+00 1.4356000000000000e+02
ITEM: ATOMS id type xs ys zs
75 1 0.483127 0.493872 0.459803
45 1 0.478196 0.477835 0.465317
116 2 0.492476 0.480219 0.459338
117 1 0.499782 0.4959 0.453983
59 1 0.51308 0.486758 0.460678
77 1 0.529112 0.493697 0.46384
23 1 0.471745 0.506473 0.464313
113 1 0.487802 0.509944 0.456894
27 1 0.501201 0.523584 0.464513
55 2 0.502588 0.50656 0.467593
43 1 0.516933 0.503066 0.454476
28 1 0.51597 0.517461 0.462347
58 2 0.474158 0.468337 0.496779
107 1 0.489194 0.45924 0.492043
16 1 0.480467 0.465209 0.479649
130 1 0.4994 0.459632 0.478497
47 1 0.506094 0.471052 0.46837
17 1 0.505708 0.455113 0.494008
49 1 0.515918 0.466381 0.483122
85 2 0.466852 0.492589 0.470468
125 2 0.455203 0.492985 0.485847
140 1 0.456531 0.477695 0.496972
25 2 0.468745 0.478093 0.483747
6 2 0.471356 0.490739 0.495098
24 2 0.48075 0.491934 0.478904
137 2 0.483843 0.480108 0.490096
110 2 0.491734 0.477311 0.476151
3 2 0.496654 0.488198 0.487101
132 2 0.495595 0.493481 0.470957
97 2 0.471313 0.505099 0.483716
129 2 0.523859 0.477981 0.469835
13 2 0.500104 0.471783 0.491785
72 2 0.509468 0.482542 0.479713
84 2 0.512902 0.493908 0.490554
15 2 0.517652 0.478617 0.494571
8 2 0.526374 0.487546 0.483286
11 2 0.514759 0.497392 0.472558
94 2 0.531561 0.47171 0.486957
18 1 0.542597 0.480632 0.473326
29 1 0.540258 0.484594 0.492715
54 2 0.540087 0.497603 0.481367
70 1 0.456643 0.507138 0.472864
20 2 0.455806 0.510188 0.490494
111 1 0.466158 0.521112 0.475675
139 1 0.464946 0.523644 0.494625
26 2 0.482866 0.523449 0.46814
5 2 0.484531 0.501938 0.492756
126 2 0.488204 0.507899 0.47422
83 2 0.480384 0.520443 0.486215
35 2 0.494725 0.514089 0.496975
90 2 0.49611 0.520004 0.481634
10 2 0.47052 0.507596 0.500201
9 2 0.501954 0.503486 0.483977
12 2 0.514505 0.512851 0.480122
91 2 0.523341 0.52058 0.494228
33 2 0.512486 0.51043 0.496402
106 2 0.527518 0.506225 0.487506
60 2 0.508697 0.526922 0.49293
56 2 0.528195 0.523571 0.477448
87 1 0.529696 0.50871 0.469949
44 1 0.540112 0.503999 0.49837
1 1 0.540176 0.515467 0.487408
114 2 0.490866 0.530367 0.494283
79 1 0.479161 0.536625 0.481308
134 1 0.494011 0.535364 0.475672
52 2 0.502649 0.542043 0.488646
100 1 0.522359 0.53718 0.487743
39 1 0.51177 0.53087 0.474604
46 1 0.53856 0.531662 0.489192
63 1 0.477576 0.463477 0.513714
80 1 0.495169 0.457691 0.510238
131 2 0.490819 0.468434 0.522456
78 2 0.52229 0.461402 0.497991
31 1 0.512277 0.453305 0.511804
51 1 0.521778 0.466192 0.516367
105 1 0.507149 0.462813 0.525345
81 2 0.507821 0.469271 0.507344
32 2 0.459336 0.484631 0.512975
92 2 0.456668 0.497377 0.501584
19 1 0.472088 0.477017 0.523416
7 2 0.489572 0.472711 0.5052
67 2 0.472498 0.494882 0.511141
57 2 0.486571 0.489842 0.503559
122 2 0.473835 0.479429 0.507329
118 2 0.485616 0.484187 0.519271
14 2 0.498502 0.495334 0.516067
22 2 0.503433 0.480139 0.521217
71 2 0.504347 0.48505 0.503358
141 2 0.518139 0.481448 0.51092
103 2 0.513888 0.494114 0.524884
109 2 0.513987 0.497997 0.508936
4 2 0.516518 0.478419 0.530658
115 1 0.527433 0.492303 0.500292
104 2 0.528653 0.49782 0.516756
120 1 0.534197 0.474494 0.505626
136 1 0.530538 0.481693 0.521741
101 1 0.544123 0.491373 0.510915
135 1 0.4579 0.50171 0.521512
53 1 0.455768 0.512966 0.508469
119 1 0.464954 0.525661 0.510639
102 2 0.49955 0.499822 0.499258
69 2 0.472635 0.511758 0.516198
128 2 0.484966 0.500429 0.525907
66 2 0.481104 0.520781 0.503887
68 2 0.486664 0.505171 0.509847
34 2 0.489516 0.516415 0.520609
127 1 0.475875 0.525357 0.527686
40 2 0.498108 0.52756 0.511128
64 2 0.500765 0.506769 0.526675
76 2 0.50283 0.509798 0.511081
108 2 0.507085 0.523192 0.523762
93 2 0.519072 0.509879 0.520962
88 2 0.513855 0.52132 0.50825
96 2 0.526844 0.510339 0.506877
95 2 0.532548 0.522414 0.520061
41 1 0.541868 0.521149 0.503533
138 1 0.545656 0.507971 0.514259
65 1 0.533619 0.506354 0.530027
74 1 0.475396 0.536492 0.499827
30 1 0.491952 0.542526 0.504475
82 1 0.483254 0.534429 0.518075
98 1 0.501696 0.540532 0.521049
50 1 0.519635 0.535314 0.520205
48 2 0.510142 0.538189 0.504816
36 1 0.529649 0.533221 0.504002
37 1 0.469049 0.492042 0.528552
73 2 0.496899 0.491507 0.531036
21 1 0.483176 0.481773 0.535803
123 1 0.49137 0.488657 0.5483
61 1 0.479446 0.495939 0.541491
86 1 0.499327 0.473831 0.536375
112 1 0.510031 0.490596 0.543499
42 1 0.526602 0.49218 0.536227
121 1 0.471551 0.508622 0.53275
99 2 0.486535 0.512378 0.537429
38 1 0.498815 0.50462 0.546162
133 2 0.515429 0.506774 0.538617
124 1 0.522349 0.520675 0.533605
2 2 0.502055 0.518109 0.538432
89 1 0.492115 0.531422 0.53125
62 1 0.510679 0.533417 0.536892
ITEM: TIMESTEP
1165000
ITEM: NUMBER OF ATOMS
141
ITEM: BOX BOUNDS pp pp pp
0.0000000000000000e+00 1.4356000000000000e+02
0.0000000000000000e+00 1.4356000000000000e+02
0.0000000000000000e+00 1.4356000000000000e+02
ITEM: ATOMS id type xs ys zs
47 1 0.506026 0.467717 0.468791
85 2 0.469399 0.492836 0.470693
75 1 0.484472 0.496055 0.460292
45 1 0.476051 0.477467 0.466795
116 2 0.492297 0.480692 0.45943
117 1 0.50117 0.495107 0.453768
59 1 0.511606 0.482212 0.463432
77 1 0.526139 0.489989 0.467196
129 2 0.524567 0.473954 0.47278
23 1 0.472956 0.510372 0.464798
113 1 0.491062 0.510747 0.458702
26 2 0.484133 0.523788 0.470927
27 1 0.49984 0.523425 0.462658
55 2 0.503745 0.50804 0.465989
43 1 0.516126 0.499907 0.459293
28 1 0.517387 0.52002 0.461848
87 1 0.527476 0.509463 0.469682
58 2 0.471687 0.465083 0.49478
107 1 0.488411 0.460274 0.497089
16 1 0.479087 0.463792 0.477775
130 1 0.496741 0.458689 0.481955
17 1 0.507154 0.455619 0.496441
49 1 0.515198 0.463814 0.484028
125 2 0.459592 0.493226 0.483844
140 1 0.458433 0.481021 0.497485
25 2 0.46844 0.477488 0.4842
6 2 0.472113 0.493388 0.492963
24 2 0.480823 0.489313 0.479886
137 2 0.484118 0.477022 0.49023
110 2 0.491697 0.475571 0.475637
3 2 0.496834 0.489926 0.486285
132 2 0.498102 0.491515 0.470368
94 2 0.533595 0.470194 0.486554
13 2 0.501125 0.47287 0.489575
72 2 0.509695 0.482881 0.479324
84 2 0.512822 0.492878 0.491641
15 2 0.517602 0.477034 0.497108
8 2 0.525292 0.484942 0.485387
11 2 0.514347 0.49941 0.477319
115 1 0.528388 0.490384 0.501897
18 1 0.540359 0.48133 0.474334
29 1 0.541112 0.486279 0.49316
54 2 0.537394 0.496757 0.479071
70 1 0.457122 0.507449 0.473907
20 2 0.459747 0.511312 0.490424
111 1 0.465339 0.522132 0.478972
139 1 0.466033 0.527429 0.49485
97 2 0.471525 0.505848 0.481536
5 2 0.485534 0.502846 0.491405
126 2 0.486751 0.50642 0.474267
83 2 0.481693 0.519403 0.487434
35 2 0.49536 0.516587 0.496808
90 2 0.497749 0.521943 0.480931
102 2 0.497987 0.500547 0.50008
10 2 0.472756 0.511666 0.498369
9 2 0.501256 0.505202 0.484531
12 2 0.513635 0.515405 0.479575
91 2 0.523315 0.52014 0.492899
33 2 0.511807 0.509812 0.496048
106 2 0.525363 0.502906 0.488582
60 2 0.507799 0.526426 0.494306
56 2 0.526627 0.523334 0.476199
44 1 0.540366 0.502647 0.496594
1 1 0.537618 0.514187 0.484854
114 2 0.491351 0.5336 0.491635
79 1 0.47763 0.536541 0.483318
134 1 0.493744 0.537961 0.474692
52 2 0.505418 0.541461 0.489421
100 1 0.521236 0.537647 0.489286
39 1 0.511273 0.53183 0.476067
46 1 0.536001 0.531687 0.488506
63 1 0.480818 0.463738 0.510757
80 1 0.496924 0.455587 0.509629
131 2 0.492427 0.469363 0.521608
78 2 0.523006 0.462953 0.498622
31 1 0.515298 0.453628 0.512809
51 1 0.524281 0.467127 0.517085
105 1 0.508109 0.465249 0.523024
81 2 0.509283 0.469131 0.507606
19 1 0.470839 0.472017 0.523101
32 2 0.461417 0.484178 0.513491
92 2 0.459728 0.497989 0.502265
37 1 0.471016 0.489594 0.527252
135 1 0.458348 0.501867 0.520576
7 2 0.491798 0.474259 0.505425
67 2 0.474812 0.495093 0.511459
57 2 0.486028 0.488922 0.500797
122 2 0.473888 0.479005 0.504111
118 2 0.484884 0.483409 0.517418
14 2 0.494358 0.495276 0.515487
22 2 0.503045 0.480526 0.518301
71 2 0.504512 0.484749 0.502137
141 2 0.517903 0.484146 0.513749
103 2 0.510186 0.493678 0.524677
109 2 0.513961 0.499494 0.50934
104 2 0.526763 0.497365 0.519094
120 1 0.533926 0.474166 0.50548
136 1 0.532527 0.4817 0.523772
101 1 0.544912 0.489961 0.508611
53 1 0.455092 0.514178 0.507565
119 1 0.468912 0.527172 0.511835
69 2 0.471664 0.511792 0.516361
128 2 0.483773 0.50289 0.523647
66 2 0.482924 0.525359 0.504385
68 2 0.485943 0.508478 0.507081
34 2 0.48913 0.519122 0.519981
127 1 0.473812 0.525315 0.528693
64 2 0.500585 0.507914 0.529107
40 2 0.498448 0.527379 0.51079
76 2 0.502038 0.510356 0.512995
108 2 0.505001 0.522282 0.524721
93 2 0.516347 0.511459 0.52131
88 2 0.51563 0.521471 0.508552
96 2 0.527575 0.50952 0.506365
95 2 0.532782 0.522873 0.514294
41 1 0.540914 0.519217 0.499781
138 1 0.543127 0.506278 0.511951
74 1 0.476114 0.540414 0.500665
30 1 0.493775 0.544771 0.503903
82 1 0.48475 0.536704 0.516078
98 1 0.501915 0.540852 0.520686
50 1 0.519644 0.533181 0.519183
48 2 0.510911 0.539236 0.504757
36 1 0.528002 0.534356 0.503023
73 2 0.494047 0.488947 0.530931
21 1 0.483881 0.476462 0.533988
123 1 0.490988 0.485398 0.547619
61 1 0.481799 0.495804 0.542101
86 1 0.499388 0.473636 0.536133
4 2 0.515795 0.479558 0.530965
112 1 0.507081 0.488763 0.543384
42 1 0.523111 0.491909 0.535872
121 1 0.469659 0.50476 0.533382
99 2 0.486167 0.5132 0.536424
38 1 0.497209 0.501474 0.545513
89 1 0.491982 0.528793 0.533403
133 2 0.513563 0.50581 0.540241
124 1 0.521054 0.519675 0.534646
2 2 0.501985 0.518741 0.54358
65 1 0.532596 0.510038 0.527247
62 1 0.511019 0.534425 0.533093
ITEM: TIMESTEP
1170000
ITEM: NUMBER OF ATOMS
141
ITEM: BOX BOUNDS pp pp pp
0.0000000000000000e+00 1.4356000000000000e+02
0.0000000000000000e+00 1.4356000000000000e+02
0.0000000000000000e+00 1.4356000000000000e+02
ITEM: ATOMS id type xs ys zs
47 1 0.507373 0.467997 0.46735
75 1 0.480448 0.495441 0.460922
45 1 0.475761 0.476146 0.467807
116 2 0.492937 0.479494 0.461115
117 1 0.498891 0.496709 0.456267
59 1 0.512795 0.483122 0.461694
77 1 0.529976 0.492498 0.464543
23 1 0.471174 0.509527 0.466841
113 1 0.487308 0.5126 0.458912
27 1 0.499879 0.524986 0.463904
43 1 0.515921 0.50055 0.454934
55 2 0.504008 0.508548 0.468459
28 1 0.517257 0.519761 0.462437
87 1 0.528323 0.508014 0.469194
58 2 0.472491 0.47022 0.496143
107 1 0.488739 0.46089 0.492483
16 1 0.481145 0.46334 0.475818
130 1 0.498917 0.460606 0.479297
17 1 0.507707 0.456618 0.496104
49 1 0.515681 0.462703 0.484711
78 2 0.524364 0.462737 0.49913
85 2 0.46696 0.492684 0.469499
125 2 0.459698 0.493429 0.482317
140 1 0.458658 0.480988 0.498932
25 2 0.467939 0.479481 0.482018
6 2 0.472435 0.491247 0.49388
24 2 0.481527 0.490766 0.478468
137 2 0.484057 0.477703 0.490249
110 2 0.491145 0.476795 0.475707
3 2 0.495591 0.487472 0.488455
132 2 0.49765 0.492519 0.472173
102 2 0.499203 0.500777 0.49878
129 2 0.524245 0.473753 0.473187
13 2 0.501971 0.472364 0.491123
72 2 0.509806 0.481005 0.478847
84 2 0.512712 0.493237 0.490676
15 2 0.519832 0.477684 0.494594
8 2 0.526705 0.486741 0.483794
11 2 0.514954 0.496958 0.474377
94 2 0.533083 0.471433 0.486618
18 1 0.540005 0.482419 0.475615
29 1 0.540311 0.485689 0.493738
54 2 0.541733 0.4989 0.477715
70 1 0.45527 0.507816 0.474087
20 2 0.459305 0.50781 0.490588
111 1 0.465151 0.520714 0.479419
139 1 0.467468 0.524826 0.4945
26 2 0.481344 0.523063 0.471355
5 2 0.485881 0.502777 0.490738
97 2 0.472042 0.504009 0.482239
126 2 0.486904 0.507581 0.473919
83 2 0.481683 0.518416 0.486308
35 2 0.495768 0.516147 0.495856
90 2 0.497498 0.519589 0.480949
9 2 0.501687 0.503186 0.484101
12 2 0.514241 0.515193 0.479469
91 2 0.526193 0.519149 0.49316
33 2 0.512984 0.509391 0.496728
106 2 0.525068 0.50281 0.486132
60 2 0.51042 0.52536 0.493343
56 2 0.527039 0.524533 0.475655
44 1 0.538401 0.502413 0.496086
1 1 0.541183 0.514517 0.483637
114 2 0.490953 0.531164 0.493016
79 1 0.47673 0.535823 0.482746
134 1 0.493714 0.53459 0.476142
74 1 0.476141 0.53804 0.5
52 2 0.503259 0.541373 0.489572
100 1 0.521572 0.536208 0.486548
39 1 0.509804 0.531086 0.475999
46 1 0.53696 0.532017 0.489817
63 1 0.480547 0.461907 0.508033
80 1 0.497339 0.458827 0.508377
131 2 0.488227 0.470076 0.520858
31 1 0.512867 0.455255 0.513703
51 1 0.523393 0.467123 0.518407
105 1 0.503642 0.464101 0.523587
81 2 0.510349 0.471499 0.50657
32 2 0.460268 0.486086 0.514012
92 2 0.455753 0.497037 0.501992
19 1 0.47248 0.475594 0.525832
37 1 0.469658 0.491006 0.528026
7 2 0.492969 0.474694 0.506648
67 2 0.471876 0.495099 0.510145
57 2 0.485941 0.491306 0.501828
122 2 0.474384 0.477605 0.509393
118 2 0.485088 0.48566 0.51845
14 2 0.497402 0.494883 0.514621
22 2 0.50209 0.480306 0.519376
71 2 0.505379 0.485569 0.502631
141 2 0.517468 0.482961 0.514797
103 2 0.51092 0.494436 0.525647
109 2 0.512705 0.498918 0.509067
115 1 0.526434 0.491765 0.500746
104 2 0.527092 0.497094 0.518169
120 1 0.532246 0.476545 0.506558
136 1 0.533777 0.481834 0.523325
101 1 0.541379 0.490601 0.51037
135 1 0.458554 0.503033 0.517317
53 1 0.454646 0.515698 0.505026
119 1 0.46594 0.527759 0.511857
10 2 0.472671 0.508425 0.501124
69 2 0.471415 0.51232 0.517342
128 2 0.482809 0.50156 0.52519
66 2 0.481008 0.522109 0.504231
68 2 0.488036 0.505807 0.508921
34 2 0.488876 0.517501 0.519083
127 1 0.473104 0.523896 0.531747
40 2 0.496576 0.528025 0.509397
76 2 0.503108 0.512678 0.510559
108 2 0.50513 0.523833 0.522455
93 2 0.518218 0.51081 0.522237
88 2 0.515553 0.521605 0.509043
96 2 0.526615 0.508058 0.50659
64 2 0.50132 0.507652 0.528132
95 2 0.532274 0.522351 0.517427
41 1 0.541413 0.519171 0.501043
138 1 0.541253 0.506778 0.51576
30 1 0.493325 0.544059 0.505086
82 1 0.482448 0.532016 0.518153
98 1 0.501927 0.540698 0.520788
50 1 0.518342 0.53441 0.520402
48 2 0.51147 0.538152 0.504974
36 1 0.526378 0.532691 0.502026
73 2 0.494866 0.491149 0.530853
21 1 0.482801 0.481954 0.536379
123 1 0.494709 0.486329 0.547472
61 1 0.480935 0.497082 0.541317
4 2 0.515715 0.475491 0.530785
86 1 0.500309 0.474492 0.537659
112 1 0.510283 0.488142 0.544052
42 1 0.524901 0.49031 0.53468
121 1 0.469382 0.506805 0.534036
38 1 0.498768 0.502351 0.544288
99 2 0.487327 0.51449 0.536742
133 2 0.514826 0.504087 0.537752
124 1 0.525155 0.522538 0.534782
2 2 0.505394 0.519734 0.538838
65 1 0.532143 0.505926 0.530451
89 1 0.492547 0.529442 0.532059
62 1 0.512502 0.534643 0.534333
ITEM: TIMESTEP
1175000
ITEM: NUMBER OF ATOMS
141
ITEM: BOX BOUNDS pp pp pp
0.0000000000000000e+00 1.4356000000000000e+02
0.0000000000000000e+00 1.4356000000000000e+02
0.0000000000000000e+00 1.4356000000000000e+02
ITEM: ATOMS id type xs ys zs
47 1 0.506454 0.468966 0.467008
85 2 0.468295 0.492861 0.469853
75 1 0.484372 0.4943 0.459339
45 1 0.478587 0.479428 0.466957
116 2 0.495795 0.480529 0.45859
117 1 0.499536 0.497888 0.451349
59 1 0.511446 0.483709 0.462132
77 1 0.528798 0.49222 0.466628
23 1 0.474017 0.507255 0.465561
113 1 0.490892 0.510322 0.456957
27 1 0.497301 0.52558 0.461871
26 2 0.482265 0.522221 0.469913
43 1 0.516965 0.500573 0.457762
55 2 0.503959 0.507317 0.467346
28 1 0.516331 0.521343 0.463395
58 2 0.468713 0.468146 0.494511
107 1 0.487818 0.459133 0.495208
16 1 0.479448 0.465028 0.479744
130 1 0.496265 0.458739 0.479867
17 1 0.50564 0.4551 0.494759
49 1 0.513075 0.464281 0.481035
78 2 0.524515 0.463499 0.501668
125 2 0.458589 0.493944 0.488512
140 1 0.458221 0.48136 0.499454
25 2 0.470482 0.480358 0.480989
132 2 0.498656 0.492045 0.469967
6 2 0.473488 0.490422 0.493573
24 2 0.483972 0.490683 0.477712
137 2 0.483382 0.476324 0.492027
110 2 0.493269 0.476973 0.477025
3 2 0.49721 0.487892 0.487825
13 2 0.50038 0.470391 0.491704
102 2 0.501497 0.49919 0.498939
129 2 0.523692 0.476712 0.471142
72 2 0.509966 0.480803 0.479102
84 2 0.513177 0.493143 0.491052
15 2 0.516907 0.478595 0.496221
8 2 0.525 0.488481 0.483578
11 2 0.51445 0.49714 0.474087
94 2 0.528402 0.47313 0.48648
18 1 0.539908 0.482261 0.478199
29 1 0.542356 0.487328 0.494274
54 2 0.539327 0.498031 0.481913
70 1 0.456786 0.50594 0.475152
20 2 0.456584 0.509764 0.490827
111 1 0.467215 0.519006 0.478662
139 1 0.468501 0.525622 0.49405
10 2 0.471657 0.507147 0.498176
5 2 0.485732 0.501106 0.490543
97 2 0.472124 0.502618 0.482775
126 2 0.488107 0.506335 0.474741
83 2 0.481362 0.517286 0.487051
35 2 0.495128 0.514363 0.493864
90 2 0.49715 0.520328 0.477233
87 1 0.531081 0.509898 0.471392
9 2 0.501259 0.50345 0.482606
12 2 0.513071 0.515238 0.479732
91 2 0.524154 0.521284 0.49415
33 2 0.511281 0.510459 0.496786
106 2 0.523923 0.504763 0.488055
60 2 0.508117 0.52726 0.490896
56 2 0.525543 0.525656 0.477542
44 1 0.540298 0.503136 0.499333
1 1 0.539049 0.515442 0.485571
114 2 0.489884 0.531305 0.492161
79 1 0.47609 0.536149 0.482866
134 1 0.495058 0.536841 0.475768
52 2 0.502605 0.543082 0.488796
100 1 0.520053 0.539421 0.488162
39 1 0.508813 0.532282 0.473007
46 1 0.537101 0.533994 0.486861
63 1 0.475305 0.462163 0.510917
80 1 0.497295 0.453833 0.510799
131 2 0.487932 0.465918 0.521685
31 1 0.512582 0.45163 0.512383
51 1 0.524983 0.465295 0.518254
105 1 0.507086 0.463204 0.524641
81 2 0.50851 0.46846 0.505987
32 2 0.461015 0.485373 0.514893
92 2 0.458108 0.497944 0.504655
37 1 0.469095 0.490511 0.53067
19 1 0.471751 0.472951 0.523919
7 2 0.491933 0.471334 0.505798
67 2 0.474223 0.495285 0.51344
57 2 0.486691 0.487715 0.50303
122 2 0.473343 0.477997 0.507307
118 2 0.485814 0.482262 0.519225
14 2 0.497146 0.495503 0.514956
115 1 0.527963 0.491863 0.500757
22 2 0.501769 0.478618 0.519391
71 2 0.502067 0.483857 0.504274
141 2 0.516474 0.482805 0.512656
103 2 0.512037 0.495989 0.525922
109 2 0.51425 0.498516 0.50798
4 2 0.51616 0.479827 0.527269
104 2 0.527136 0.496813 0.518888
120 1 0.532213 0.477299 0.505469
136 1 0.531976 0.482602 0.523818
101 1 0.542093 0.489998 0.512642
135 1 0.459036 0.502145 0.520494
53 1 0.458528 0.513998 0.509502
119 1 0.46868 0.528838 0.511979
69 2 0.472877 0.512759 0.516448
128 2 0.485346 0.502407 0.524127
66 2 0.481218 0.520987 0.505088
68 2 0.486446 0.507622 0.506656
34 2 0.488889 0.518111 0.521747
40 2 0.499169 0.52734 0.505911
127 1 0.477031 0.525769 0.529784
64 2 0.499908 0.505135 0.528251
76 2 0.501875 0.510588 0.510918
108 2 0.505179 0.524025 0.522047
93 2 0.51645 0.510649 0.519431
88 2 0.515292 0.523662 0.50734
96 2 0.527178 0.509484 0.507462
95 2 0.530739 0.52168 0.516364
41 1 0.540121 0.522166 0.501274
138 1 0.540918 0.505402 0.517551
74 1 0.477784 0.538358 0.500392
30 1 0.493475 0.544649 0.504387
82 1 0.485044 0.532974 0.515345
98 1 0.501231 0.539468 0.518016
50 1 0.518455 0.535388 0.518873
48 2 0.512041 0.540848 0.504281
36 1 0.528279 0.534791 0.503005
86 1 0.498788 0.472866 0.535251
73 2 0.49759 0.490279 0.531748
21 1 0.483249 0.477988 0.535954
123 1 0.493686 0.483607 0.547666
61 1 0.483714 0.495954 0.541152
112 1 0.511218 0.486714 0.541394
42 1 0.526235 0.49492 0.539698
121 1 0.471919 0.506246 0.534025
99 2 0.488108 0.513751 0.537223
38 1 0.500023 0.500455 0.545255
133 2 0.515097 0.508717 0.538312
124 1 0.520178 0.523527 0.530668
2 2 0.502915 0.519388 0.537926
65 1 0.529944 0.509806 0.531877
89 1 0.491548 0.53219 0.5316
62 1 0.508617 0.535601 0.533851
ITEM: TIMESTEP
1180000
ITEM: NUMBER OF ATOMS
141
ITEM: BOX BOUNDS pp pp pp
0.0000000000000000e+00 1.4356000000000000e+02
0.0000000000000000e+00 1.4356000000000000e+02
0.0000000000000000e+00 1.4356000000000000e+02
ITEM: ATOMS id type xs ys zs
47 1 0.50602 0.466746 0.46815
85 2 0.466836 0.491225 0.473507
75 1 0.481775 0.492199 0.459455
45 1 0.478964 0.478858 0.469052
116 2 0.496293 0.480415 0.46127
117 1 0.500761 0.497381 0.457234
59 1 0.512863 0.485202 0.461266
77 1 0.530561 0.49367 0.462883
23 1 0.473777 0.510123 0.46371
113 1 0.490553 0.509713 0.458985
43 1 0.51695 0.5048 0.458071
27 1 0.49856 0.523984 0.460585
55 2 0.505098 0.510654 0.467876
28 1 0.517232 0.523708 0.4638
87 1 0.526162 0.51137 0.470748
58 2 0.473282 0.465442 0.495948
16 1 0.480669 0.464348 0.482398
130 1 0.496936 0.457453 0.482395
107 1 0.488052 0.457698 0.496377
17 1 0.506642 0.456596 0.498172
49 1 0.514932 0.463004 0.48415
78 2 0.521501 0.461322 0.499253
13 2 0.501406 0.47179 0.490736
125 2 0.457122 0.493767 0.486929
140 1 0.460505 0.478947 0.494947
25 2 0.471653 0.479744 0.483769
132 2 0.498952 0.493097 0.47221
6 2 0.474604 0.494071 0.494315
24 2 0.483538 0.489408 0.480883
137 2 0.485993 0.477961 0.492781
110 2 0.494027 0.476074 0.476436
3 2 0.496456 0.489305 0.488915
5 2 0.486991 0.501562 0.490779
129 2 0.524126 0.475359 0.47002
72 2 0.509783 0.480413 0.477625
84 2 0.512496 0.492013 0.492041
15 2 0.518048 0.476771 0.495042
8 2 0.526695 0.487977 0.482319
11 2 0.515803 0.496494 0.473488
94 2 0.531583 0.471588 0.486822
18 1 0.538975 0.481601 0.47208