ITEM: TIMESTEP
5000000
ITEM: NUMBER OF ATOMS
141
ITEM: BOX BOUNDS pp pp pp
0.0000000000000000e+00 1.4356000000000000e+02
0.0000000000000000e+00 1.4356000000000000e+02
0.0000000000000000e+00 1.4356000000000000e+02
ITEM: ATOMS id type xs ys zs
44 1 0.481534 0.469387 0.469189
79 1 0.502283 0.468131 0.462413
98 1 0.482172 0.486845 0.458021
24 2 0.49169 0.48149 0.468682
43 1 0.503363 0.490828 0.452701
104 2 0.526479 0.494786 0.467986
51 1 0.514681 0.479469 0.460725
123 1 0.468825 0.516855 0.460704
139 1 0.473796 0.500241 0.461076
8 2 0.492936 0.500839 0.45962
113 1 0.484278 0.515628 0.453836
49 1 0.479478 0.528887 0.46621
29 1 0.497569 0.517474 0.463573
38 1 0.511672 0.503887 0.46045
87 1 0.525281 0.51318 0.463646
130 1 0.499684 0.533591 0.469941
86 1 0.482646 0.461337 0.487812
82 1 0.49364 0.461212 0.475693
36 1 0.492983 0.448194 0.490582
2 2 0.500579 0.46319 0.493694
107 1 0.523001 0.464394 0.477363
48 2 0.508804 0.458196 0.479862
31 1 0.518842 0.456817 0.496361
127 1 0.469693 0.486475 0.471152
89 1 0.456333 0.495536 0.484776
21 1 0.470102 0.473205 0.487143
75 1 0.462141 0.484632 0.498304
90 2 0.474764 0.491476 0.4866
118 2 0.484313 0.494926 0.473928
92 2 0.489222 0.476019 0.485573
125 2 0.497219 0.489349 0.483618
52 2 0.479019 0.473734 0.499646
76 2 0.488101 0.488805 0.497723
99 2 0.504719 0.491038 0.47092
108 2 0.516023 0.471469 0.49026
96 2 0.503418 0.475232 0.477892
5 2 0.51991 0.482789 0.477692
132 2 0.513352 0.494689 0.48838
33 2 0.526269 0.48486 0.494785
103 2 0.500804 0.49961 0.49838
45 1 0.53554 0.489677 0.480345
25 2 0.532529 0.473788 0.488186
59 1 0.545602 0.498022 0.49573
134 1 0.456268 0.517135 0.473645
37 1 0.468478 0.52583 0.478672
28 1 0.460303 0.514508 0.489317
128 2 0.46907 0.502126 0.49684
11 2 0.469123 0.504195 0.479016
140 1 0.466485 0.529085 0.496589
64 2 0.490285 0.504184 0.48721
12 2 0.482141 0.511433 0.472218
15 2 0.495924 0.516897 0.497378
34 2 0.494433 0.520097 0.480876
93 2 0.478831 0.514768 0.489722
4 2 0.510895 0.519897 0.47404
126 2 0.50094 0.505678 0.47629
67 2 0.520816 0.507151 0.478979
74 1 0.527368 0.520089 0.482614
106 2 0.508563 0.511663 0.489511
6 2 0.514245 0.527065 0.493331
129 2 0.529184 0.500958 0.492057
72 2 0.526236 0.515977 0.49862
39 1 0.538545 0.50628 0.479844
109 2 0.541481 0.517232 0.493845
47 1 0.484899 0.535329 0.481439
7 2 0.48515 0.531134 0.498208
102 2 0.498432 0.537511 0.487795
112 1 0.515552 0.535908 0.477886
61 1 0.528238 0.535578 0.489439
14 2 0.512058 0.543795 0.495333
53 1 0.469081 0.458058 0.502573
116 2 0.489744 0.456457 0.503845
101 1 0.480293 0.462744 0.51615
18 1 0.498648 0.463414 0.519261
23 1 0.516302 0.468054 0.522636
68 2 0.509901 0.466904 0.507011
124 1 0.46825 0.47393 0.511497
80 1 0.462916 0.489798 0.518829
60 2 0.494855 0.475761 0.502656
100 1 0.475286 0.491904 0.506792
57 2 0.486342 0.479444 0.514947
71 2 0.482987 0.499355 0.521802
20 2 0.495832 0.493251 0.512812
70 1 0.475116 0.481849 0.528313
54 2 0.49395 0.488691 0.527272
95 2 0.517733 0.498626 0.502284
3 2 0.526241 0.471058 0.504105
110 2 0.504628 0.478472 0.51745
66 2 0.507507 0.485501 0.502237
26 2 0.520373 0.484445 0.512684
58 2 0.51001 0.498189 0.517216
133 2 0.526907 0.494911 0.525486
131 2 0.527012 0.478327 0.529281
42 1 0.542462 0.481564 0.500106
78 2 0.535245 0.494868 0.51093
111 1 0.538422 0.478721 0.517127
46 1 0.541732 0.487591 0.529389
105 1 0.551069 0.493675 0.512856
17 1 0.459212 0.516689 0.505
1 1 0.456483 0.500324 0.507985
30 1 0.456038 0.510927 0.521743
91 2 0.467427 0.524607 0.516903
55 2 0.470914 0.50669 0.514352
10 2 0.485294 0.505229 0.503718
73 2 0.477464 0.518851 0.505347
137 2 0.480774 0.515719 0.521917
56 2 0.491098 0.525183 0.514142
81 2 0.495614 0.509449 0.515051
40 2 0.496196 0.519388 0.52928
69 2 0.509384 0.513244 0.507286
13 2 0.519277 0.526521 0.510454
32 2 0.525661 0.50853 0.515164
22 2 0.511636 0.513978 0.52241
135 1 0.534598 0.529089 0.50648
63 1 0.541329 0.51126 0.508097
84 2 0.53849 0.505113 0.524268
65 1 0.530844 0.5244 0.521805
19 1 0.492657 0.546794 0.503236
83 2 0.479257 0.534948 0.512617
27 1 0.49477 0.542696 0.521979
9 2 0.507254 0.530191 0.521115
114 2 0.5021 0.531457 0.504399
97 2 0.508361 0.544552 0.509643
50 1 0.525606 0.538875 0.521869
85 2 0.525223 0.541215 0.504666
117 1 0.4699 0.499782 0.531577
136 1 0.489274 0.471545 0.529798
77 1 0.482737 0.491619 0.537946
138 1 0.498396 0.48864 0.543187
94 2 0.510636 0.488317 0.530129
121 1 0.504725 0.472755 0.536005
35 2 0.51562 0.482762 0.544531
41 1 0.529671 0.491879 0.540955
62 1 0.467807 0.516771 0.534782
141 2 0.498992 0.50349 0.531691
88 2 0.483351 0.507792 0.537887
16 1 0.499433 0.510645 0.546024
122 2 0.525893 0.511318 0.532095
120 1 0.515477 0.500698 0.540625
115 1 0.51347 0.518316 0.53904
119 1 0.483311 0.530756 0.530055
ITEM: TIMESTEP
5005000
ITEM: NUMBER OF ATOMS
141
ITEM: BOX BOUNDS pp pp pp
0.0000000000000000e+00 1.4356000000000000e+02
0.0000000000000000e+00 1.4356000000000000e+02
0.0000000000000000e+00 1.4356000000000000e+02
ITEM: ATOMS id type xs ys zs
82 1 0.483746 0.465227 0.460491
43 1 0.502333 0.463971 0.469736
107 1 0.516414 0.469705 0.476123
98 1 0.481051 0.4894 0.455931
139 1 0.47098 0.495854 0.468841
38 1 0.49414 0.499293 0.457873
104 2 0.516572 0.498159 0.471971
51 1 0.519363 0.48364 0.46367
99 2 0.496815 0.483754 0.463798
113 1 0.47774 0.507527 0.455975
29 1 0.49473 0.516261 0.455473
49 1 0.502406 0.529066 0.462304
37 1 0.482381 0.525718 0.464456
8 2 0.512798 0.513069 0.462848
87 1 0.509574 0.496133 0.456519
4 2 0.528342 0.514106 0.4712
39 1 0.534494 0.497536 0.470678
124 1 0.469881 0.464447 0.503848
86 1 0.470929 0.464018 0.478286
36 1 0.489496 0.458296 0.478165
53 1 0.479128 0.452741 0.492349
79 1 0.510313 0.458001 0.488067
48 2 0.495418 0.457833 0.494267
108 2 0.524741 0.466712 0.492266
21 1 0.466144 0.476907 0.491133
90 2 0.469054 0.494056 0.496946
89 1 0.462066 0.491304 0.48025
127 1 0.476123 0.500537 0.483682
44 1 0.471758 0.477163 0.470341
2 2 0.482718 0.469282 0.492661
118 2 0.486754 0.491308 0.473272
92 2 0.481857 0.483814 0.486368
125 2 0.497753 0.488095 0.487116
24 2 0.487041 0.474677 0.473915
96 2 0.499884 0.471897 0.485175
5 2 0.506621 0.483522 0.475754
132 2 0.501088 0.500259 0.474141
33 2 0.525184 0.489704 0.498337
3 2 0.515224 0.479037 0.490955
66 2 0.512982 0.495821 0.488066
45 1 0.538602 0.492917 0.487153
25 2 0.525339 0.487652 0.480823
42 1 0.537228 0.477712 0.495435
123 1 0.467866 0.512793 0.472426
75 1 0.46049 0.508442 0.488997
134 1 0.462841 0.523193 0.483302
28 1 0.467999 0.531211 0.496891
1 1 0.459651 0.516412 0.505685
12 2 0.484233 0.509675 0.470707
11 2 0.480585 0.521065 0.481766
64 2 0.49309 0.508074 0.486779
93 2 0.496214 0.519107 0.475204
73 2 0.474739 0.514778 0.494897
103 2 0.500664 0.498596 0.499278
15 2 0.488909 0.524303 0.49473
34 2 0.513167 0.526103 0.474452
126 2 0.509545 0.511487 0.483185
67 2 0.525262 0.504426 0.484945
106 2 0.521599 0.519551 0.494011
95 2 0.518039 0.50253 0.504619
74 1 0.533464 0.527083 0.484263
102 2 0.504541 0.527178 0.487773
59 1 0.550392 0.50235 0.495595
129 2 0.540952 0.509636 0.483037
78 2 0.532882 0.504736 0.497549
140 1 0.472577 0.537211 0.481247
47 1 0.489472 0.535635 0.48155
7 2 0.482515 0.539029 0.495928
130 1 0.505929 0.540811 0.477472
14 2 0.4998 0.542515 0.494657
112 1 0.519598 0.538903 0.488636
116 2 0.499068 0.462949 0.511312
101 1 0.48376 0.454296 0.508328
136 1 0.485913 0.459972 0.523114
31 1 0.518943 0.455723 0.503655
18 1 0.505708 0.459735 0.52889
23 1 0.519629 0.465298 0.518404
111 1 0.538449 0.471584 0.513031
100 1 0.461894 0.481398 0.506893
80 1 0.46152 0.498243 0.514096
30 1 0.463829 0.483083 0.525098
76 2 0.484056 0.497268 0.500429
55 2 0.472112 0.47063 0.517425
52 2 0.478597 0.482163 0.50175
60 2 0.495356 0.47936 0.499952
57 2 0.487995 0.475321 0.515847
20 2 0.493111 0.491109 0.512674
128 2 0.477603 0.490822 0.516772
68 2 0.509383 0.469277 0.500755
110 2 0.505364 0.476351 0.520093
26 2 0.52296 0.476027 0.506609
133 2 0.519907 0.503828 0.522901
94 2 0.525442 0.480594 0.526441
58 2 0.50997 0.486027 0.505838
141 2 0.512424 0.489942 0.523706
105 1 0.539214 0.488007 0.522847
63 1 0.54239 0.489312 0.505656
17 1 0.464053 0.513629 0.522718
83 2 0.467689 0.530844 0.515138
91 2 0.475394 0.506899 0.510882
10 2 0.489611 0.511103 0.505977
56 2 0.481037 0.524165 0.509162
13 2 0.495167 0.519317 0.519433
114 2 0.497305 0.529693 0.507337
137 2 0.483395 0.505293 0.522967
81 2 0.503275 0.504055 0.516482
69 2 0.504836 0.514846 0.499179
32 2 0.528118 0.513051 0.510754
85 2 0.512944 0.517051 0.512254
6 2 0.513014 0.531406 0.501393
72 2 0.542232 0.518708 0.49588
109 2 0.542348 0.506987 0.510146
135 1 0.541424 0.523941 0.513626
84 2 0.527722 0.492848 0.512825
19 1 0.493648 0.54825 0.511557
119 1 0.479367 0.521655 0.52674
27 1 0.476462 0.54469 0.510622
9 2 0.488375 0.534935 0.520775
65 1 0.524524 0.531606 0.514516
97 2 0.511458 0.54474 0.507558
61 1 0.532144 0.534549 0.5002
117 1 0.470055 0.498737 0.530412
71 2 0.494588 0.488683 0.528012
70 1 0.480736 0.484091 0.535676
54 2 0.493773 0.472392 0.532233
138 1 0.497489 0.487691 0.545661
131 2 0.525885 0.493052 0.534821
121 1 0.510241 0.477059 0.538422
35 2 0.510371 0.494917 0.540694
62 1 0.472523 0.51235 0.538372
88 2 0.500719 0.503893 0.53319
77 1 0.484807 0.499538 0.539859
40 2 0.491411 0.516034 0.538009
122 2 0.528368 0.519636 0.524826
22 2 0.50854 0.516819 0.528774
41 1 0.524208 0.509858 0.539568
16 1 0.508179 0.51302 0.546415
120 1 0.516845 0.526287 0.538494
46 1 0.536553 0.503817 0.525887
115 1 0.499783 0.53157 0.535281
50 1 0.511114 0.533568 0.523579
ITEM: TIMESTEP
5010000
ITEM: NUMBER OF ATOMS
141
ITEM: BOX BOUNDS pp pp pp
0.0000000000000000e+00 1.4356000000000000e+02
0.0000000000000000e+00 1.4356000000000000e+02
0.0000000000000000e+00 1.4356000000000000e+02
ITEM: ATOMS id type xs ys zs
139 1 0.471076 0.496613 0.467736
98 1 0.501489 0.481081 0.456914
44 1 0.482466 0.480772 0.464389
99 2 0.496631 0.49093 0.470469
51 1 0.511588 0.469807 0.46531
87 1 0.529992 0.494028 0.464264
123 1 0.472759 0.517758 0.469456
118 2 0.487997 0.496385 0.458865
113 1 0.505156 0.499115 0.454022
37 1 0.485122 0.515627 0.45888
29 1 0.499361 0.508444 0.465824
38 1 0.51545 0.488288 0.458311
49 1 0.498742 0.52596 0.464433
8 2 0.516026 0.511588 0.463272
130 1 0.511423 0.534855 0.472662
53 1 0.479309 0.458635 0.49282
36 1 0.492113 0.458962 0.482541
79 1 0.505597 0.455159 0.472993
82 1 0.47628 0.466472 0.472553
43 1 0.517447 0.466197 0.480678
48 2 0.494526 0.456742 0.501476
31 1 0.512678 0.455913 0.492441
86 1 0.464827 0.472258 0.48982
89 1 0.46775 0.481136 0.474949
75 1 0.455949 0.487155 0.486249
21 1 0.451766 0.501952 0.497532
90 2 0.469522 0.491841 0.492845
2 2 0.482858 0.474755 0.485282
92 2 0.482381 0.490409 0.479763
125 2 0.496341 0.487084 0.48705
24 2 0.495462 0.473064 0.472475
107 1 0.525611 0.478294 0.469696
108 2 0.517376 0.480432 0.491448
96 2 0.502663 0.47104 0.48735
5 2 0.510987 0.483391 0.475453
3 2 0.511223 0.495909 0.490314
25 2 0.525249 0.492336 0.481704
33 2 0.525919 0.491165 0.498367
42 1 0.531246 0.477164 0.485041
45 1 0.541366 0.49666 0.47573
129 2 0.537272 0.502745 0.491056
63 1 0.544254 0.484896 0.493528
134 1 0.460824 0.522616 0.486562
127 1 0.464985 0.506423 0.482951
132 2 0.498984 0.50373 0.483476
12 2 0.48504 0.506246 0.474239
11 2 0.477793 0.518059 0.488169
64 2 0.482518 0.502719 0.491235
93 2 0.48965 0.521379 0.476871
73 2 0.468719 0.507024 0.499697
15 2 0.49393 0.516384 0.492292
104 2 0.513779 0.499587 0.472693
66 2 0.509636 0.514296 0.496113
34 2 0.522855 0.523576 0.4715
126 2 0.508435 0.517052 0.478072
67 2 0.522795 0.508736 0.487752
106 2 0.519092 0.52651 0.485504
102 2 0.501567 0.529866 0.487447
39 1 0.530762 0.509595 0.472023
4 2 0.534109 0.520361 0.483767
28 1 0.469416 0.532845 0.496394
140 1 0.476824 0.536205 0.476997
47 1 0.493248 0.53877 0.475637
7 2 0.485383 0.532741 0.490012
14 2 0.498701 0.542524 0.498457
112 1 0.508568 0.543553 0.485653
74 1 0.525656 0.540945 0.493536
124 1 0.463215 0.46738 0.513105
101 1 0.478016 0.460201 0.508253
136 1 0.476843 0.46648 0.525147
52 2 0.474629 0.477654 0.505733
60 2 0.490946 0.472544 0.500672
116 2 0.493719 0.463777 0.516079
23 1 0.512091 0.451671 0.509293
68 2 0.507615 0.466111 0.504444
94 2 0.519163 0.465564 0.515076
100 1 0.458225 0.481508 0.502591
30 1 0.466129 0.497575 0.52859
55 2 0.469945 0.481891 0.521833
91 2 0.471508 0.493198 0.508677
76 2 0.485721 0.488666 0.498282
57 2 0.487973 0.481409 0.515561
128 2 0.481117 0.496557 0.521849
20 2 0.496583 0.497205 0.515608
26 2 0.523614 0.467416 0.499546
110 2 0.503263 0.476527 0.516907
58 2 0.500841 0.485275 0.503656
141 2 0.510381 0.489563 0.523325
84 2 0.516057 0.48153 0.508236
131 2 0.52275 0.478366 0.524972
59 1 0.54085 0.495853 0.506304
111 1 0.533101 0.477146 0.511245
105 1 0.540713 0.489026 0.523577
109 2 0.526026 0.493262 0.515249
1 1 0.463067 0.52011 0.506363
80 1 0.455989 0.500171 0.513839
83 2 0.4713 0.511092 0.519933
103 2 0.497632 0.500172 0.497891
17 1 0.476993 0.506302 0.538222
10 2 0.482772 0.505816 0.508645
56 2 0.481309 0.522634 0.5066
13 2 0.487271 0.511412 0.523715
137 2 0.492132 0.499702 0.534315
114 2 0.497193 0.528366 0.503358
85 2 0.501155 0.525384 0.519207
78 2 0.527506 0.520742 0.500177
95 2 0.511248 0.500547 0.506565
133 2 0.518356 0.504559 0.52326
81 2 0.49702 0.511857 0.509558
122 2 0.513959 0.517735 0.510111
88 2 0.503649 0.508507 0.526056
61 1 0.540756 0.530448 0.497983
72 2 0.527396 0.506382 0.506442
32 2 0.530821 0.518786 0.516116
135 1 0.54333 0.513729 0.504187
46 1 0.536857 0.504734 0.521432
27 1 0.466598 0.532329 0.516382
9 2 0.483575 0.527901 0.523918
19 1 0.482994 0.539219 0.506735
50 1 0.496691 0.540251 0.516383
69 2 0.512822 0.529627 0.499965
6 2 0.526019 0.535115 0.510571
97 2 0.512766 0.544348 0.50896
120 1 0.510954 0.538347 0.523875
65 1 0.532864 0.532605 0.528242
18 1 0.509094 0.46243 0.527997
54 2 0.493441 0.470309 0.530703
71 2 0.494866 0.485473 0.529287
117 1 0.496581 0.483074 0.545159
70 1 0.478357 0.488821 0.537112
138 1 0.507042 0.493348 0.53888
121 1 0.509224 0.474579 0.535455
35 2 0.524865 0.492958 0.532138
119 1 0.470303 0.51904 0.532472
77 1 0.499027 0.508388 0.545521
62 1 0.488317 0.519352 0.537219
40 2 0.505221 0.522547 0.536295
16 1 0.515577 0.508069 0.539794
22 2 0.51815 0.522227 0.52651
41 1 0.530489 0.51175 0.533811
115 1 0.493027 0.538595 0.532861
ITEM: TIMESTEP
5015000
ITEM: NUMBER OF ATOMS
141
ITEM: BOX BOUNDS pp pp pp
0.0000000000000000e+00 1.4356000000000000e+02
0.0000000000000000e+00 1.4356000000000000e+02
0.0000000000000000e+00 1.4356000000000000e+02
ITEM: ATOMS id type xs ys zs
51 1 0.52109 0.479056 0.464009
139 1 0.470346 0.500185 0.466129
44 1 0.477775 0.483457 0.467694
118 2 0.486706 0.500131 0.466984
98 1 0.493175 0.479141 0.460889
38 1 0.517945 0.493449 0.467647
113 1 0.5025 0.49159 0.461512
107 1 0.535679 0.484548 0.4683
29 1 0.494533 0.510604 0.45754
49 1 0.501184 0.526279 0.461746
37 1 0.481905 0.529033 0.467354
8 2 0.510966 0.506774 0.461383
87 1 0.527348 0.509283 0.466867
53 1 0.481242 0.459636 0.495349
36 1 0.480592 0.462057 0.473387
48 2 0.494736 0.458631 0.485355
79 1 0.516925 0.466439 0.476686
43 1 0.526924 0.459451 0.490756
31 1 0.518172 0.453487 0.504078
96 2 0.509874 0.461568 0.491523
82 1 0.464193 0.479793 0.480958
86 1 0.467467 0.464055 0.487116
89 1 0.459201 0.49149 0.472339
75 1 0.459187 0.497809 0.488755
90 2 0.4722 0.488178 0.495458
99 2 0.493042 0.486798 0.476757
2 2 0.482598 0.474874 0.485716
92 2 0.473564 0.49479 0.480645
125 2 0.502232 0.480203 0.491006
24 2 0.496817 0.470797 0.474972
76 2 0.486925 0.48843 0.498819
52 2 0.474804 0.47303 0.502228
108 2 0.519873 0.475463 0.492977
5 2 0.508782 0.480916 0.474026
3 2 0.517022 0.493673 0.495208
25 2 0.523937 0.488037 0.479848
104 2 0.507411 0.493505 0.48409
103 2 0.500092 0.497558 0.49635
42 1 0.532273 0.474102 0.483974
63 1 0.544934 0.485767 0.483138
33 2 0.531226 0.487286 0.497023
45 1 0.535663 0.498771 0.476237
127 1 0.461055 0.511781 0.478822
134 1 0.457879 0.512709 0.497376
64 2 0.487861 0.501992 0.484437
123 1 0.466443 0.526845 0.475446
28 1 0.462269 0.52821 0.492011
12 2 0.477796 0.512809 0.474175
11 2 0.47358 0.509185 0.490252
93 2 0.478183 0.52417 0.488759
15 2 0.492032 0.515992 0.491493
132 2 0.500224 0.505288 0.474111
102 2 0.493223 0.520199 0.47588
34 2 0.51796 0.523108 0.489471
66 2 0.506282 0.509811 0.488218
126 2 0.513217 0.51697 0.474507
67 2 0.520263 0.505444 0.481527
114 2 0.504688 0.525115 0.497815
129 2 0.545237 0.512348 0.491871
39 1 0.534601 0.516806 0.479395
4 2 0.531854 0.516177 0.50064
72 2 0.532302 0.502695 0.491978
140 1 0.477956 0.540356 0.48102
7 2 0.490494 0.533223 0.489161
47 1 0.495202 0.541233 0.473513
130 1 0.513783 0.534185 0.467051
14 2 0.505163 0.530573 0.480999
112 1 0.523774 0.535702 0.478234
69 2 0.508717 0.542038 0.493288
74 1 0.535199 0.528959 0.491231
124 1 0.461422 0.466193 0.510285
101 1 0.482468 0.461771 0.51488
136 1 0.470257 0.471656 0.522384
116 2 0.498675 0.469266 0.517244
23 1 0.495205 0.456398 0.502531
68 2 0.509711 0.470882 0.50482
18 1 0.515444 0.462748 0.518702
21 1 0.45168 0.493616 0.506502
100 1 0.458317 0.476662 0.49671
80 1 0.460938 0.497835 0.525592
91 2 0.465862 0.4849 0.512034
60 2 0.491417 0.472855 0.502013
57 2 0.483816 0.480534 0.513833
128 2 0.477942 0.495872 0.518824
20 2 0.493482 0.498732 0.513213
71 2 0.496417 0.486001 0.523939
26 2 0.52701 0.469298 0.506079
94 2 0.528247 0.476663 0.520825
110 2 0.511843 0.480462 0.521755
58 2 0.503623 0.485178 0.509039
84 2 0.519087 0.483815 0.508853
35 2 0.524653 0.493128 0.522159
95 2 0.511586 0.498566 0.512264
111 1 0.542482 0.474701 0.498596
59 1 0.547721 0.495481 0.499558
105 1 0.539533 0.49098 0.514592
73 2 0.468378 0.501055 0.505772
1 1 0.455796 0.507518 0.513739
27 1 0.459849 0.524997 0.511829
83 2 0.471309 0.512574 0.519472
10 2 0.483667 0.504536 0.501061
56 2 0.472723 0.517958 0.50468
13 2 0.487218 0.51333 0.514958
9 2 0.488761 0.524844 0.503999
85 2 0.497848 0.525509 0.519021
119 1 0.479931 0.530102 0.516758
81 2 0.500391 0.511651 0.506561
78 2 0.516216 0.508392 0.499883
133 2 0.519006 0.510413 0.524795
122 2 0.513555 0.520183 0.512608
88 2 0.502074 0.511358 0.523748
109 2 0.528486 0.501068 0.509802
46 1 0.536845 0.506039 0.524115
32 2 0.530252 0.519766 0.516009
135 1 0.544589 0.508484 0.510337
61 1 0.541045 0.531527 0.508294
19 1 0.475042 0.537414 0.497553
50 1 0.492107 0.541073 0.504691
115 1 0.49181 0.541962 0.520414
106 2 0.522939 0.530762 0.502632
6 2 0.520194 0.534136 0.519754
97 2 0.507101 0.53697 0.509696
120 1 0.50688 0.539865 0.528146
121 1 0.503745 0.469962 0.533569
55 2 0.471953 0.485614 0.529071
54 2 0.487387 0.472399 0.528209
70 1 0.484846 0.486772 0.537753
77 1 0.491792 0.497899 0.547648
141 2 0.508271 0.496204 0.528646
117 1 0.501576 0.484421 0.541684
131 2 0.517526 0.481906 0.535538
138 1 0.512936 0.495422 0.5481
30 1 0.474713 0.50438 0.534647
17 1 0.486395 0.516198 0.530618
137 2 0.491128 0.500191 0.529149
40 2 0.500023 0.510202 0.540119
65 1 0.531244 0.520422 0.532689
22 2 0.512205 0.5233 0.532105
16 1 0.517285 0.510082 0.542197
41 1 0.530003 0.498749 0.536392
62 1 0.495974 0.52809 0.53605
ITEM: TIMESTEP
5020000
ITEM: NUMBER OF ATOMS
141
ITEM: BOX BOUNDS pp pp pp
0.0000000000000000e+00 1.4356000000000000e+02
0.0000000000000000e+00 1.4356000000000000e+02
0.0000000000000000e+00 1.4356000000000000e+02
ITEM: ATOMS id type xs ys zs
98 1 0.497173 0.464471 0.476244
89 1 0.47762 0.493551 0.462948
44 1 0.488353 0.498879 0.450917
82 1 0.485371 0.474494 0.46567
113 1 0.501188 0.491222 0.45737
38 1 0.508428 0.474354 0.464182
107 1 0.5301 0.498238 0.46726
118 2 0.481555 0.511997 0.459907
132 2 0.491165 0.500759 0.470067
102 2 0.486013 0.518729 0.475743
139 1 0.498515 0.511291 0.457586
8 2 0.514527 0.502908 0.458933
39 1 0.511156 0.523755 0.464106
29 1 0.494938 0.527086 0.462573
86 1 0.477834 0.467156 0.480886
36 1 0.487079 0.455575 0.490061
48 2 0.483421 0.467588 0.498402
24 2 0.501666 0.465699 0.492398
79 1 0.514125 0.460822 0.479351
43 1 0.518021 0.456962 0.502099
96 2 0.506205 0.470091 0.508283
75 1 0.455456 0.492381 0.481895
100 1 0.470176 0.486186 0.474972
124 1 0.460489 0.476954 0.484604
92 2 0.475092 0.481384 0.490348
127 1 0.464785 0.502134 0.469899
99 2 0.49673 0.483729 0.472258
2 2 0.491965 0.478243 0.48562
76 2 0.486941 0.4859 0.500367
64 2 0.502276 0.493649 0.485057
52 2 0.472591 0.477736 0.506353
12 2 0.485433 0.492571 0.482908
103 2 0.500439 0.497822 0.500862
51 1 0.524416 0.480949 0.472214
5 2 0.509008 0.475924 0.480665
125 2 0.503301 0.482535 0.496824
108 2 0.517117 0.473445 0.49632
3 2 0.518666 0.489627 0.486596
25 2 0.512761 0.490441 0.470076
42 1 0.529063 0.471329 0.484582
33 2 0.534674 0.489432 0.482426
123 1 0.467145 0.52196 0.476158
134 1 0.458758 0.510808 0.484489
28 1 0.459471 0.525802 0.49066
11 2 0.469968 0.496875 0.488847
93 2 0.477847 0.506199 0.479436
15 2 0.493737 0.506665 0.484957
7 2 0.479446 0.529391 0.48748
37 1 0.480083 0.529405 0.464633
126 2 0.501955 0.521562 0.479015
56 2 0.474035 0.515789 0.494585
87 1 0.526881 0.513971 0.469345
104 2 0.509127 0.507515 0.474072
34 2 0.518651 0.521897 0.482428
66 2 0.508636 0.512529 0.491835
67 2 0.524406 0.503701 0.483724
14 2 0.506022 0.531232 0.490304
45 1 0.535806 0.524679 0.48437
63 1 0.539333 0.509408 0.481421
72 2 0.533908 0.500952 0.496968
4 2 0.527028 0.513984 0.495079
129 2 0.542582 0.516395 0.496145
61 1 0.536188 0.523493 0.512027
49 1 0.492691 0.53673 0.477863
140 1 0.492194 0.537104 0.498993
130 1 0.510012 0.537821 0.474549
47 1 0.502555 0.548246 0.488213
112 1 0.519933 0.540425 0.486418
74 1 0.52479 0.532542 0.469651
53 1 0.468129 0.465032 0.495202
101 1 0.478402 0.463228 0.514184
23 1 0.495914 0.455973 0.507007
116 2 0.492816 0.462118 0.520918
31 1 0.512607 0.457162 0.520206
111 1 0.533867 0.468218 0.501114
90 2 0.474187 0.49443 0.505582
136 1 0.463321 0.480601 0.518903
21 1 0.459336 0.482281 0.500512
91 2 0.456605 0.495585 0.514038
54 2 0.484072 0.473987 0.528586
60 2 0.491967 0.474472 0.511716
57 2 0.481691 0.485935 0.519025
128 2 0.471575 0.496439 0.522842
20 2 0.488563 0.499278 0.512347
58 2 0.499994 0.487477 0.513791
26 2 0.522512 0.467838 0.513475
68 2 0.515325 0.486216 0.508764
110 2 0.522721 0.486027 0.523637
84 2 0.528879 0.484081 0.499064
95 2 0.508667 0.500335 0.513963
59 1 0.54931 0.498114 0.489625
94 2 0.5337 0.479968 0.51421
105 1 0.544629 0.479292 0.492842
109 2 0.529414 0.495888 0.511706
73 2 0.460624 0.503387 0.500742
1 1 0.460841 0.511025 0.520723
27 1 0.461808 0.520862 0.507036
119 1 0.471687 0.525035 0.52091
83 2 0.474585 0.508049 0.511201
10 2 0.484438 0.504613 0.498554
13 2 0.484376 0.523846 0.507429
9 2 0.492731 0.521106 0.494398
122 2 0.500283 0.527528 0.509497
137 2 0.480525 0.511793 0.524599
17 1 0.477877 0.521376 0.537242
114 2 0.513919 0.521972 0.503119
35 2 0.521662 0.50107 0.524179
81 2 0.497932 0.511902 0.507103
78 2 0.516555 0.500389 0.49938
88 2 0.496635 0.504523 0.526795
133 2 0.509755 0.515941 0.518522
46 1 0.545509 0.489051 0.506332
32 2 0.522735 0.511467 0.51062
135 1 0.545079 0.506125 0.508602
65 1 0.536706 0.508785 0.522333
19 1 0.471696 0.533764 0.501793
50 1 0.499006 0.545325 0.509931
115 1 0.484505 0.539086 0.51632
106 2 0.528542 0.531368 0.49914
69 2 0.512942 0.539219 0.502912
6 2 0.515747 0.531629 0.516904
97 2 0.500167 0.53594 0.525389
18 1 0.503466 0.473582 0.52486
55 2 0.473373 0.484943 0.535755
71 2 0.490631 0.48849 0.532612
70 1 0.488012 0.487747 0.548959
117 1 0.505022 0.484818 0.545295
141 2 0.509858 0.489987 0.530202
121 1 0.493515 0.473445 0.541005
131 2 0.516576 0.474318 0.535947
138 1 0.521389 0.4931 0.542451
77 1 0.500039 0.500273 0.543889
41 1 0.536542 0.493507 0.530342
85 2 0.494012 0.521089 0.523908
80 1 0.466619 0.507815 0.537173
30 1 0.481788 0.500992 0.539249
62 1 0.494247 0.515391 0.538635
22 2 0.524969 0.520293 0.526852
40 2 0.510725 0.507613 0.534011
16 1 0.531206 0.508519 0.538487
120 1 0.509627 0.524438 0.532632
ITEM: TIMESTEP
5025000
ITEM: NUMBER OF ATOMS
141
ITEM: BOX BOUNDS pp pp pp
0.0000000000000000e+00 1.4356000000000000e+02
0.0000000000000000e+00 1.4356000000000000e+02
0.0000000000000000e+00 1.4356000000000000e+02
ITEM: ATOMS id type xs ys zs
44 1 0.49835 0.484203 0.454648
82 1 0.486522 0.474875 0.46581
89 1 0.484289 0.496602 0.463289
113 1 0.510731 0.499445 0.452893
38 1 0.521167 0.481551 0.454182
25 2 0.512637 0.489664 0.470646
127 1 0.474037 0.516142 0.467665
29 1 0.498157 0.519495 0.459741
123 1 0.482529 0.527977 0.469206
139 1 0.514452 0.515687 0.458006
8 2 0.535421 0.50966 0.469584
39 1 0.525326 0.523238 0.470384
100 1 0.478627 0.465736 0.483562
98 1 0.496361 0.468685 0.478434
101 1 0.470582 0.460606 0.496948
36 1 0.493104 0.456182 0.489371
24 2 0.489514 0.471657 0.494585
79 1 0.515537 0.466139 0.476034
42 1 0.506364 0.464588 0.491981
105 1 0.525733 0.466457 0.495034
51 1 0.507097 0.475269 0.464228
86 1 0.461661 0.474495 0.488552
75 1 0.469153 0.483787 0.477632
21 1 0.45675 0.499334 0.48473
124 1 0.456976 0.479691 0.503419
99 2 0.497235 0.486233 0.472297
92 2 0.468131 0.492181 0.495203
2 2 0.484521 0.483138 0.481883
12 2 0.491346 0.498268 0.480409
125 2 0.484179 0.489006 0.496468
103 2 0.498022 0.498343 0.495866
132 2 0.518181 0.506271 0.471098
64 2 0.509604 0.503405 0.484164
5 2 0.516614 0.478591 0.48486
3 2 0.52365 0.479551 0.470794
108 2 0.500457 0.483073 0.488391
78 2 0.513631 0.492939 0.496716
67 2 0.52425 0.493689 0.484683
84 2 0.515409 0.476898 0.500158
107 1 0.525101 0.497588 0.459725
33 2 0.535327 0.492703 0.473033
63 1 0.546918 0.491704 0.485811
11 2 0.473263 0.501388 0.480104
134 1 0.451852 0.511092 0.496387
28 1 0.461451 0.515303 0.481822
19 1 0.462916 0.524681 0.495216
56 2 0.467677 0.508363 0.495831
118 2 0.502516 0.503726 0.466963
102 2 0.496155 0.526301 0.479621
93 2 0.489834 0.510394 0.472757
9 2 0.496649 0.514428 0.487868
7 2 0.480237 0.520275 0.485425
10 2 0.483687 0.505692 0.493195
126 2 0.505913 0.531538 0.466472
15 2 0.509003 0.518879 0.475449
74 1 0.537762 0.52359 0.483496
104 2 0.52223 0.516834 0.486289
34 2 0.508443 0.528035 0.490538
106 2 0.524 0.532126 0.490174
4 2 0.525155 0.505687 0.497919
87 1 0.535727 0.505549 0.485104
45 1 0.548553 0.513111 0.489695
14 2 0.49018 0.526765 0.496047
37 1 0.468644 0.530953 0.479042
49 1 0.483053 0.537765 0.482866
122 2 0.495176 0.542984 0.496323
140 1 0.472985 0.537461 0.498941
130 1 0.493663 0.543898 0.473451
47 1 0.505629 0.542799 0.484841
112 1 0.518512 0.53858 0.475017
53 1 0.467161 0.46875 0.5113
23 1 0.481482 0.456838 0.509267
60 2 0.480706 0.467262 0.522544
31 1 0.49524 0.454728 0.519862
43 1 0.503435 0.450471 0.501191
96 2 0.499384 0.466402 0.50804
111 1 0.516637 0.462534 0.511772
121 1 0.507307 0.463977 0.529764
136 1 0.470203 0.481202 0.530688
90 2 0.458755 0.496811 0.507876
91 2 0.455872 0.485219 0.518965
73 2 0.464277 0.500899 0.521613
48 2 0.475501 0.475826 0.497918
52 2 0.470289 0.486059 0.512549
76 2 0.484916 0.475884 0.510051
57 2 0.484905 0.484016 0.524012
71 2 0.500165 0.490977 0.528179
20 2 0.491508 0.496096 0.509659
116 2 0.495326 0.47294 0.523087
58 2 0.498556 0.482814 0.504997
26 2 0.50917 0.478067 0.517285
68 2 0.522632 0.487329 0.513673
141 2 0.515344 0.48512 0.529059
35 2 0.517998 0.500523 0.525573
131 2 0.532714 0.478494 0.484266
72 2 0.533239 0.48615 0.497592
94 2 0.530734 0.475073 0.509658
110 2 0.530942 0.485635 0.529918
46 1 0.539408 0.490343 0.516284
27 1 0.46178 0.515115 0.510571
119 1 0.46716 0.517289 0.526906
83 2 0.476095 0.502219 0.508091
13 2 0.477339 0.520584 0.502579
137 2 0.482402 0.515062 0.517654
81 2 0.493115 0.511662 0.50596
85 2 0.498373 0.522131 0.521931
88 2 0.496675 0.505679 0.522163
66 2 0.509257 0.510247 0.501279
133 2 0.51121 0.511609 0.516829
109 2 0.527051 0.50566 0.512812
95 2 0.508029 0.496079 0.512362
114 2 0.503101 0.526122 0.505717
32 2 0.519312 0.52287 0.503454
65 1 0.529637 0.522798 0.51704
129 2 0.537572 0.520929 0.501822
59 1 0.541417 0.500706 0.500892
135 1 0.544024 0.509047 0.514972
41 1 0.535492 0.501322 0.527186
115 1 0.467477 0.532016 0.514717
97 2 0.484611 0.533287 0.509629
50 1 0.500065 0.539541 0.515945
69 2 0.515441 0.538403 0.503056
6 2 0.514468 0.530406 0.518828
61 1 0.531934 0.535799 0.506299
1 1 0.473494 0.497207 0.539771
54 2 0.485576 0.472627 0.537026
55 2 0.490595 0.488258 0.541218
18 1 0.522704 0.470839 0.525314
70 1 0.502026 0.4775 0.539248
77 1 0.508473 0.496067 0.54225
117 1 0.519952 0.476255 0.541847
138 1 0.524053 0.497792 0.540526
128 2 0.480613 0.498957 0.524305
30 1 0.494077 0.504173 0.539148
80 1 0.478774 0.512594 0.535185
62 1 0.493971 0.520853 0.538863
22 2 0.51274 0.525092 0.533624
40 2 0.507835 0.510303 0.533094
16 1 0.52676 0.514746 0.531097
17 1 0.484105 0.530296 0.527332
120 1 0.500351 0.537187 0.532215
ITEM: TIMESTEP
5030000
ITEM: NUMBER OF ATOMS
141
ITEM: BOX BOUNDS pp pp pp
0.0000000000000000e+00 1.4356000000000000e+02
0.0000000000000000e+00 1.4356000000000000e+02
0.0000000000000000e+00 1.4356000000000000e+02
ITEM: ATOMS id type xs ys zs
89 1 0.486712 0.503161 0.45467
99 2 0.482304 0.484925 0.460465
51 1 0.496236 0.473808 0.465189
38 1 0.50143 0.489922 0.452711
107 1 0.516318 0.492509 0.455478
3 2 0.514883 0.483953 0.46977
127 1 0.49686 0.521121 0.457035
44 1 0.516692 0.528999 0.460634
123 1 0.479125 0.514684 0.462437
93 2 0.493428 0.508672 0.470671
113 1 0.509676 0.506745 0.457162
139 1 0.528491 0.515639 0.464615
132 2 0.508003 0.505838 0.481539
39 1 0.519491 0.534789 0.475374
15 2 0.507605 0.517059 0.46843
29 1 0.483892 0.533813 0.462377
126 2 0.499838 0.534251 0.467241
98 1 0.493384 0.461331 0.479757
36 1 0.492915 0.454856 0.495823
82 1 0.476757 0.459436 0.492646
108 2 0.490458 0.472269 0.492626
42 1 0.50683 0.461774 0.49051
79 1 0.510502 0.465631 0.47548
111 1 0.522797 0.46149 0.488016
43 1 0.514712 0.452053 0.503038
2 2 0.473426 0.477491 0.487926
21 1 0.468731 0.483924 0.471962
27 1 0.458977 0.486434 0.483914
75 1 0.478238 0.468144 0.474481
92 2 0.475272 0.49404 0.486718
12 2 0.485941 0.482276 0.478382
103 2 0.491796 0.487886 0.494973
118 2 0.503432 0.493812 0.469684
125 2 0.477026 0.487447 0.504337
25 2 0.501489 0.478692 0.480059
5 2 0.52008 0.477739 0.485078
64 2 0.511132 0.490306 0.484077
84 2 0.505887 0.478836 0.495979
33 2 0.521663 0.502713 0.470083
72 2 0.516972 0.48907 0.499691