ITEM: TIMESTEP
9400000
ITEM: NUMBER OF ATOMS
141
ITEM: BOX BOUNDS pp pp pp
0.0000000000000000e+00 1.4356000000000000e+02
0.0000000000000000e+00 1.4356000000000000e+02
0.0000000000000000e+00 1.4356000000000000e+02
ITEM: ATOMS id type xs ys zs
105 1 0.478063 0.495244 0.463597
121 1 0.481283 0.479666 0.464341
140 1 0.495701 0.482837 0.455264
131 2 0.493162 0.492467 0.468605
20 2 0.497147 0.475211 0.467656
16 1 0.510896 0.474061 0.459751
66 2 0.510442 0.491622 0.457499
71 2 0.524392 0.493077 0.467211
44 1 0.496593 0.500687 0.455008
65 1 0.47588 0.512032 0.46384
39 1 0.489653 0.523363 0.467797
22 2 0.508809 0.502482 0.470534
130 1 0.521663 0.506962 0.459837
124 1 0.504153 0.515211 0.459224
77 1 0.504924 0.533061 0.465045
36 1 0.485671 0.465903 0.475993
113 1 0.488838 0.457298 0.49347
61 1 0.470596 0.463026 0.491443
82 1 0.500937 0.459324 0.473212
28 1 0.505443 0.455435 0.488922
100 1 0.524132 0.461396 0.491608
128 2 0.511289 0.469051 0.480403
106 2 0.509299 0.468423 0.498181
47 1 0.534961 0.470042 0.482695
43 1 0.466047 0.489171 0.47424
56 2 0.464423 0.481327 0.491927
21 1 0.458999 0.496067 0.489486
51 1 0.472302 0.473576 0.479198
57 2 0.496765 0.476626 0.486667
25 2 0.484612 0.484988 0.481497
52 2 0.474804 0.493834 0.494118
32 2 0.492227 0.487883 0.495687
96 2 0.483234 0.473741 0.492494
11 2 0.49834 0.498928 0.483833
53 1 0.522629 0.476152 0.470792
7 2 0.508718 0.486302 0.477285
64 2 0.508419 0.484828 0.494464
15 2 0.520654 0.477643 0.487596
137 2 0.519175 0.497718 0.483545
1 1 0.533828 0.486299 0.479328
2 2 0.530142 0.489905 0.494472
127 1 0.543744 0.47986 0.494519
134 1 0.546259 0.494031 0.486185
23 1 0.464898 0.509114 0.475702
123 1 0.457944 0.524625 0.487229
84 2 0.492309 0.508584 0.471879
112 1 0.470671 0.525117 0.473637
97 2 0.479522 0.500463 0.479956
78 2 0.470676 0.511785 0.492911
122 2 0.486932 0.506631 0.494853
118 2 0.482571 0.519003 0.48331
95 2 0.496362 0.522012 0.493697
85 2 0.509203 0.509798 0.490131
68 2 0.523968 0.51037 0.495738
132 2 0.516044 0.524726 0.492929
129 2 0.506299 0.519673 0.476663
110 2 0.521228 0.513771 0.477026
41 1 0.521553 0.529118 0.477022
141 2 0.535266 0.504556 0.47892
86 1 0.534993 0.520984 0.486555
87 1 0.540418 0.507727 0.494764
33 2 0.483987 0.535825 0.47716
94 2 0.490291 0.537606 0.492853
79 1 0.471983 0.533431 0.492175
74 1 0.517554 0.545778 0.484962
139 1 0.502464 0.550795 0.492918
55 2 0.504506 0.534723 0.484083
19 1 0.52914 0.534935 0.493916
37 1 0.478839 0.461935 0.507053
12 2 0.489761 0.4633 0.520087
136 1 0.498372 0.454294 0.507292
101 1 0.514018 0.453027 0.501577
115 1 0.510829 0.45554 0.520041
30 1 0.521087 0.464801 0.512768
99 2 0.462913 0.488981 0.506006
17 1 0.464819 0.471822 0.507285
80 1 0.461523 0.485978 0.526218
42 1 0.451152 0.498124 0.517677
13 2 0.476349 0.490274 0.520223
88 2 0.475408 0.473228 0.522903
90 2 0.480465 0.482006 0.506552
8 2 0.493727 0.471129 0.504331
14 2 0.488794 0.49307 0.510389
54 2 0.492324 0.480693 0.52092
24 2 0.496242 0.49624 0.525185
81 2 0.50547 0.472498 0.514559
93 2 0.519362 0.480205 0.510134
58 2 0.505093 0.489967 0.511638
6 2 0.512609 0.482513 0.525788
9 2 0.520911 0.493725 0.518768
83 2 0.517198 0.497251 0.502862
50 1 0.531307 0.472053 0.500601
34 2 0.52999 0.479146 0.526771
70 1 0.548969 0.493328 0.504154
76 2 0.538299 0.485245 0.51141
117 1 0.53856 0.498115 0.525336
35 2 0.458081 0.506602 0.505563
103 2 0.463219 0.521639 0.504432
92 2 0.468315 0.504075 0.524244
31 1 0.460446 0.518486 0.520507
109 2 0.481212 0.522888 0.500547
18 1 0.474146 0.526548 0.528462
26 2 0.473961 0.504227 0.506825
67 2 0.484325 0.50581 0.520755
10 2 0.476574 0.518378 0.514782
40 2 0.490605 0.523195 0.522619
114 2 0.492686 0.512846 0.509879
116 2 0.50026 0.500966 0.502415
48 2 0.506096 0.510462 0.52184
3 2 0.507628 0.51666 0.505069
108 2 0.520662 0.512426 0.512887
125 2 0.506061 0.525391 0.516544
138 1 0.521937 0.52488 0.525262
73 2 0.533027 0.522354 0.504048
91 2 0.532336 0.500395 0.508988
27 1 0.545248 0.51142 0.510162
135 1 0.534541 0.514511 0.521431
60 2 0.49146 0.532252 0.510084
29 1 0.480789 0.539664 0.523603
46 1 0.476339 0.538291 0.508207
119 1 0.493062 0.548697 0.508252
38 1 0.495933 0.544994 0.522968
63 1 0.518457 0.54633 0.500008
104 2 0.518747 0.53059 0.507951
75 1 0.511085 0.541355 0.518551
72 2 0.505954 0.536449 0.50163
89 1 0.519628 0.466656 0.529626
62 1 0.502524 0.468583 0.531416
111 1 0.470274 0.491719 0.537221
120 1 0.484992 0.477882 0.535868
69 2 0.485931 0.497007 0.536052
102 2 0.521757 0.48992 0.535567
5 2 0.502296 0.486058 0.538203
107 1 0.488785 0.525938 0.538226
98 1 0.476883 0.510889 0.536869
126 2 0.493494 0.510234 0.533685
45 1 0.498626 0.501613 0.549379
49 1 0.508427 0.517246 0.538625
59 1 0.523647 0.509375 0.535046
133 2 0.508637 0.500836 0.534626
4 2 0.506063 0.532405 0.531221
ITEM: TIMESTEP
9405000
ITEM: NUMBER OF ATOMS
141
ITEM: BOX BOUNDS pp pp pp
0.0000000000000000e+00 1.4356000000000000e+02
0.0000000000000000e+00 1.4356000000000000e+02
0.0000000000000000e+00 1.4356000000000000e+02
ITEM: ATOMS id type xs ys zs
36 1 0.491654 0.466752 0.46946
131 2 0.483796 0.495487 0.460609
66 2 0.500918 0.489458 0.469955
16 1 0.509352 0.470723 0.469592
140 1 0.493816 0.479038 0.458014
71 2 0.51975 0.487023 0.463968
44 1 0.502808 0.501482 0.456619
23 1 0.475296 0.509024 0.468178
65 1 0.490091 0.513056 0.453883
39 1 0.508454 0.516017 0.461618
112 1 0.482903 0.524651 0.46326
130 1 0.522688 0.50859 0.454918
124 1 0.520691 0.527677 0.4665
61 1 0.477586 0.458209 0.480901
51 1 0.470034 0.472999 0.47689
113 1 0.4968 0.455445 0.495422
57 2 0.487715 0.468336 0.487691
82 1 0.503399 0.460843 0.480718
53 1 0.516762 0.471309 0.487638
28 1 0.513715 0.456974 0.495558
100 1 0.527373 0.462296 0.502798
43 1 0.447948 0.494135 0.495576
105 1 0.47032 0.491112 0.469611
80 1 0.457341 0.480896 0.488059
121 1 0.477533 0.473502 0.460382
25 2 0.483096 0.497046 0.479511
52 2 0.465261 0.491606 0.499184
32 2 0.487622 0.483817 0.494937
96 2 0.473495 0.486419 0.485134
11 2 0.496426 0.49515 0.486264
20 2 0.486723 0.4821 0.474405
141 2 0.528918 0.496948 0.478398
128 2 0.499589 0.477999 0.483705
7 2 0.513089 0.485847 0.479283
64 2 0.505237 0.489595 0.497125
106 2 0.502841 0.470986 0.496371
116 2 0.5006 0.506651 0.4977
34 2 0.516249 0.477299 0.503937
1 1 0.529035 0.47914 0.475738
15 2 0.521547 0.487746 0.491796
47 1 0.532432 0.475839 0.496294
134 1 0.544113 0.492133 0.484454
21 1 0.454915 0.512001 0.493606
33 2 0.467343 0.51833 0.485046
97 2 0.467756 0.503058 0.481853
122 2 0.482216 0.499445 0.495205
78 2 0.470732 0.510172 0.499113
84 2 0.492769 0.505791 0.467986
118 2 0.483662 0.513145 0.485258
95 2 0.498069 0.523484 0.492009
129 2 0.495862 0.522936 0.474741
85 2 0.500353 0.509431 0.481412
109 2 0.48027 0.525434 0.494677
22 2 0.512895 0.502402 0.471125
137 2 0.514596 0.503932 0.487537
68 2 0.529956 0.512853 0.487243
132 2 0.513737 0.519854 0.482904
110 2 0.524679 0.512641 0.472701
3 2 0.513013 0.517271 0.500663
86 1 0.536223 0.52553 0.477835
87 1 0.542814 0.505503 0.47487
27 1 0.545368 0.507692 0.499317
19 1 0.540059 0.525872 0.495899
2 2 0.531279 0.499079 0.495312
123 1 0.463018 0.526334 0.501193
79 1 0.467998 0.537012 0.490373
77 1 0.479893 0.530215 0.478655
94 2 0.493562 0.538488 0.481039
72 2 0.524504 0.527894 0.492649
41 1 0.499778 0.531029 0.460548
74 1 0.510296 0.536786 0.475421
55 2 0.509799 0.533867 0.492445
56 2 0.472063 0.473763 0.495132
37 1 0.478947 0.454099 0.497731
136 1 0.488838 0.455665 0.512133
12 2 0.473893 0.465584 0.510578
8 2 0.488101 0.468485 0.504061
101 1 0.513021 0.452842 0.509748
89 1 0.521398 0.468416 0.519841
115 1 0.508048 0.457138 0.52544
81 2 0.502391 0.466031 0.511828
17 1 0.459555 0.476653 0.505136
111 1 0.456698 0.488142 0.515535
88 2 0.47571 0.478103 0.530851
13 2 0.479429 0.492674 0.522929
90 2 0.475103 0.482277 0.508898
14 2 0.490852 0.494958 0.50838
54 2 0.489296 0.476627 0.519596
24 2 0.496566 0.490062 0.528078
62 1 0.522078 0.477911 0.533839
93 2 0.528341 0.488864 0.508219
58 2 0.500811 0.483353 0.510891
6 2 0.517551 0.484865 0.51926
48 2 0.50663 0.498315 0.515435
5 2 0.504502 0.475694 0.526176
30 1 0.533706 0.490291 0.526343
127 1 0.545458 0.487659 0.499898
50 1 0.53743 0.476674 0.516084
76 2 0.537687 0.501565 0.512216
99 2 0.458057 0.503743 0.507823
42 1 0.463559 0.498631 0.523666
35 2 0.468799 0.514942 0.516024
31 1 0.46971 0.527423 0.527808
92 2 0.475472 0.508619 0.530872
26 2 0.476204 0.501226 0.511003
67 2 0.49174 0.503892 0.521078
10 2 0.484425 0.518903 0.517483
40 2 0.499018 0.521382 0.526317
114 2 0.487204 0.512002 0.503262
9 2 0.52379 0.505601 0.5205
83 2 0.51718 0.501775 0.503758
108 2 0.518242 0.519918 0.516727
125 2 0.502166 0.513938 0.512126
4 2 0.513826 0.523097 0.531798
91 2 0.529806 0.513502 0.503978
133 2 0.507641 0.507391 0.530025
70 1 0.54281 0.518321 0.515883
73 2 0.53009 0.522529 0.526608
63 1 0.532227 0.531305 0.51042
103 2 0.47529 0.530575 0.510532
60 2 0.494675 0.527116 0.506601
29 1 0.484803 0.534395 0.527351
46 1 0.483373 0.54286 0.495072
38 1 0.49033 0.544828 0.512758
104 2 0.511262 0.531667 0.508682
119 1 0.499255 0.5439 0.498503
139 1 0.523674 0.54324 0.500202
75 1 0.502002 0.537275 0.523093
138 1 0.519019 0.535879 0.523151
120 1 0.491317 0.462093 0.528115
69 2 0.490921 0.477563 0.535774
98 1 0.481373 0.492958 0.540413
45 1 0.506128 0.480198 0.542461
102 2 0.515727 0.493468 0.532307
18 1 0.484785 0.520634 0.536621
126 2 0.491775 0.505174 0.537294
49 1 0.502511 0.516892 0.543692
135 1 0.522261 0.510125 0.538469
59 1 0.503999 0.499316 0.545036
117 1 0.538959 0.508049 0.528661
107 1 0.500964 0.535106 0.538888
ITEM: TIMESTEP
9410000
ITEM: NUMBER OF ATOMS
141
ITEM: BOX BOUNDS pp pp pp
0.0000000000000000e+00 1.4356000000000000e+02
0.0000000000000000e+00 1.4356000000000000e+02
0.0000000000000000e+00 1.4356000000000000e+02
ITEM: ATOMS id type xs ys zs
61 1 0.497947 0.474089 0.459567
16 1 0.517728 0.474208 0.466199
140 1 0.490478 0.487132 0.453217
121 1 0.480484 0.481891 0.465636
84 2 0.486835 0.495901 0.476006
66 2 0.50007 0.489429 0.468721
36 1 0.509635 0.486292 0.454925
71 2 0.524193 0.489945 0.465621
131 2 0.483199 0.50031 0.459614
112 1 0.473912 0.512308 0.465231
41 1 0.482816 0.528274 0.463856
129 2 0.486254 0.513915 0.476522
44 1 0.498856 0.501488 0.453004
65 1 0.489844 0.516009 0.454533
130 1 0.508184 0.516451 0.458003
22 2 0.514729 0.50188 0.460089
39 1 0.497706 0.530226 0.465313
51 1 0.491744 0.462188 0.484429
56 2 0.476954 0.469016 0.487144
82 1 0.506269 0.467059 0.473802
113 1 0.492964 0.45881 0.499979
53 1 0.520822 0.463707 0.485126
28 1 0.507569 0.451733 0.492263
106 2 0.505583 0.468583 0.492768
23 1 0.466079 0.476956 0.473011
80 1 0.461405 0.477894 0.489045
97 2 0.458813 0.494722 0.486844
105 1 0.475628 0.486293 0.483385
57 2 0.489131 0.474808 0.496513
96 2 0.474601 0.48208 0.50045
20 2 0.491914 0.478775 0.479748
25 2 0.487365 0.491786 0.493796
11 2 0.501328 0.490322 0.484533
128 2 0.512878 0.47934 0.481545
7 2 0.514873 0.497118 0.477362
64 2 0.501874 0.483189 0.50111
15 2 0.529053 0.480681 0.478027
83 2 0.514709 0.490932 0.49604
93 2 0.524355 0.477937 0.493444
100 1 0.535982 0.466643 0.49368
47 1 0.538866 0.482335 0.499833
1 1 0.538143 0.498031 0.474696
2 2 0.527467 0.495201 0.48727
21 1 0.457176 0.511073 0.495743
33 2 0.462765 0.509921 0.479534
123 1 0.463057 0.524642 0.490969
77 1 0.475221 0.526083 0.478813
122 2 0.475886 0.502953 0.484615
78 2 0.474751 0.515097 0.49489
118 2 0.469949 0.497032 0.471341
109 2 0.488845 0.51991 0.490169
85 2 0.49458 0.505949 0.487573
55 2 0.502046 0.521309 0.479533
116 2 0.498787 0.500134 0.502248
110 2 0.515781 0.513283 0.472716
137 2 0.512404 0.506563 0.489149
132 2 0.501006 0.507732 0.470554
3 2 0.517222 0.527159 0.486297
68 2 0.528486 0.514422 0.483249
91 2 0.524215 0.514904 0.499303
141 2 0.530929 0.511411 0.466728
87 1 0.544532 0.517507 0.487552
19 1 0.529768 0.528612 0.473818
79 1 0.476325 0.537114 0.492128
95 2 0.499356 0.531417 0.494609
94 2 0.489188 0.53338 0.479752
46 1 0.490538 0.544687 0.490111
74 1 0.503918 0.540906 0.480999
124 1 0.513786 0.529124 0.468907
86 1 0.534187 0.53019 0.494
119 1 0.521128 0.542197 0.481236
37 1 0.472151 0.468443 0.521505
115 1 0.489129 0.458421 0.517682
101 1 0.51913 0.46042 0.51847
81 2 0.505732 0.458725 0.509009
34 2 0.522873 0.458622 0.502366
17 1 0.462111 0.469917 0.504478
43 1 0.456683 0.487857 0.500674
12 2 0.465256 0.482716 0.514767
111 1 0.457653 0.503139 0.510073
52 2 0.469946 0.497606 0.499661
32 2 0.488126 0.488071 0.508826
88 2 0.474963 0.495623 0.516364
90 2 0.479512 0.466449 0.506286
54 2 0.482996 0.479928 0.522754
26 2 0.483422 0.505716 0.504624
5 2 0.498587 0.481776 0.527483
8 2 0.495404 0.473822 0.512491
69 2 0.485138 0.4852 0.537586
14 2 0.507913 0.491894 0.515542
58 2 0.51508 0.472288 0.506064
6 2 0.513374 0.477591 0.521392
9 2 0.521476 0.495804 0.522332
76 2 0.522762 0.485431 0.5103
30 1 0.528564 0.480567 0.528187
50 1 0.531248 0.470529 0.510465
127 1 0.539452 0.485385 0.517438
27 1 0.542345 0.499918 0.495354
99 2 0.469887 0.512866 0.510764
114 2 0.48589 0.522804 0.505808
13 2 0.49182 0.497946 0.520258
35 2 0.482673 0.512881 0.521073
92 2 0.486933 0.528122 0.520814
67 2 0.499497 0.514563 0.513412
60 2 0.501256 0.53226 0.510917
31 1 0.467185 0.523798 0.527154
103 2 0.473665 0.530837 0.508406
24 2 0.497589 0.497123 0.535203
48 2 0.513641 0.503758 0.507696
125 2 0.507357 0.517889 0.499496
104 2 0.515095 0.52163 0.513687
70 1 0.528499 0.513183 0.518547
40 2 0.505144 0.527704 0.527154
134 1 0.54014 0.513809 0.505612
108 2 0.529315 0.498624 0.506722
117 1 0.53667 0.497915 0.526585
10 2 0.487382 0.540382 0.506786
29 1 0.498629 0.54454 0.522597
38 1 0.503674 0.547773 0.501081
72 2 0.51562 0.535536 0.500885
139 1 0.514102 0.539901 0.517519
63 1 0.52929 0.531108 0.511531
120 1 0.485833 0.466286 0.530941
89 1 0.50469 0.462715 0.527537
62 1 0.51356 0.47243 0.53771
136 1 0.468884 0.489661 0.532221
59 1 0.498545 0.492049 0.551308
98 1 0.482278 0.499983 0.535558
45 1 0.499749 0.476262 0.543707
102 2 0.512689 0.489923 0.534565
42 1 0.469693 0.507508 0.530535
126 2 0.497355 0.513001 0.52958
18 1 0.479542 0.518924 0.539505
107 1 0.493461 0.507786 0.5455
75 1 0.490018 0.532974 0.536023
133 2 0.510982 0.508923 0.524513
135 1 0.525362 0.494129 0.542731
4 2 0.51089 0.519836 0.53869
49 1 0.509891 0.504691 0.545206
138 1 0.522565 0.527823 0.527483
73 2 0.524618 0.509943 0.533708
ITEM: TIMESTEP
9415000
ITEM: NUMBER OF ATOMS
141
ITEM: BOX BOUNDS pp pp pp
0.0000000000000000e+00 1.4356000000000000e+02
0.0000000000000000e+00 1.4356000000000000e+02
0.0000000000000000e+00 1.4356000000000000e+02
ITEM: ATOMS id type xs ys zs
51 1 0.50402 0.462352 0.470823
61 1 0.49684 0.480933 0.462369
140 1 0.492817 0.495465 0.455759
118 2 0.477646 0.493442 0.463568
121 1 0.480242 0.478185 0.466898
66 2 0.507425 0.488899 0.471104
16 1 0.512549 0.475844 0.461695
36 1 0.509463 0.49231 0.456283
22 2 0.520534 0.485349 0.481179
141 2 0.525407 0.489548 0.466127
112 1 0.469401 0.509954 0.467013
65 1 0.475617 0.524017 0.46598
41 1 0.492994 0.526249 0.459596
44 1 0.501553 0.512752 0.45293
130 1 0.510028 0.522016 0.464738
110 2 0.519292 0.506446 0.462609
39 1 0.501535 0.534054 0.469892
17 1 0.472866 0.463596 0.499612
56 2 0.488195 0.473681 0.495043
28 1 0.487265 0.456628 0.486857
23 1 0.478808 0.466956 0.479024
113 1 0.487682 0.457811 0.502538
82 1 0.503098 0.453356 0.483962
34 2 0.517832 0.459595 0.49319
106 2 0.502823 0.467409 0.494077
101 1 0.506141 0.453354 0.505929
80 1 0.465667 0.480708 0.471279
97 2 0.459467 0.496486 0.478643
43 1 0.46786 0.477498 0.489394
111 1 0.455694 0.486983 0.494922
52 2 0.469786 0.496288 0.491783
84 2 0.491902 0.494291 0.474511
105 1 0.479662 0.485348 0.481789
20 2 0.494306 0.476386 0.480071
25 2 0.486058 0.499144 0.489424
53 1 0.526491 0.468949 0.478612
11 2 0.502493 0.490379 0.487431
128 2 0.509808 0.473282 0.481442
7 2 0.514462 0.501587 0.479679
83 2 0.516343 0.49701 0.495235
93 2 0.522439 0.477546 0.494725
132 2 0.50234 0.505784 0.468667
71 2 0.536247 0.483657 0.479203
100 1 0.536419 0.471591 0.49315
15 2 0.529727 0.494098 0.490476
27 1 0.546908 0.494932 0.487761
33 2 0.4648 0.512167 0.48366
77 1 0.462605 0.522757 0.499035
21 1 0.458822 0.50557 0.500448
131 2 0.485436 0.508798 0.465681
129 2 0.481219 0.517312 0.482503
122 2 0.475258 0.500977 0.477715
109 2 0.4711 0.533247 0.484726
85 2 0.490666 0.514281 0.495634
78 2 0.474028 0.511221 0.49662
114 2 0.482525 0.529624 0.49611
125 2 0.499132 0.526869 0.501284
95 2 0.496758 0.529764 0.485144
55 2 0.494641 0.518897 0.475549
137 2 0.499562 0.506571 0.485598
3 2 0.510564 0.51988 0.481669
68 2 0.527711 0.510613 0.490959
124 1 0.519498 0.534328 0.477713
1 1 0.531897 0.501464 0.475421
87 1 0.541519 0.515963 0.489868
19 1 0.526881 0.517413 0.473159
79 1 0.47199 0.539006 0.502014
94 2 0.484315 0.534067 0.476325
46 1 0.485563 0.548268 0.495424
74 1 0.501891 0.545501 0.484073
38 1 0.500625 0.543714 0.502144
119 1 0.515315 0.550397 0.492202
72 2 0.513164 0.533457 0.493439
86 1 0.527629 0.528264 0.491636
81 2 0.508574 0.46061 0.523051
30 1 0.526457 0.468652 0.525245
58 2 0.512807 0.467769 0.508489
89 1 0.513079 0.471489 0.535628
50 1 0.52191 0.454323 0.513178
37 1 0.463327 0.47496 0.506446
12 2 0.465385 0.494623 0.509833
136 1 0.468431 0.48061 0.522914
57 2 0.498035 0.470388 0.509444
90 2 0.480874 0.475204 0.510307
96 2 0.477833 0.487484 0.50144
32 2 0.492525 0.486582 0.507234
88 2 0.481073 0.49008 0.520904
54 2 0.474035 0.463898 0.517479
8 2 0.489581 0.462502 0.520586
64 2 0.509104 0.483184 0.500888
14 2 0.509134 0.493598 0.513759
6 2 0.512266 0.478332 0.520508
9 2 0.522744 0.496493 0.523076
76 2 0.5233 0.485526 0.510335
47 1 0.52983 0.470776 0.508675
127 1 0.53715 0.483693 0.520704
108 2 0.539482 0.487305 0.501752
42 1 0.460335 0.503569 0.526064
99 2 0.466996 0.51206 0.512702
31 1 0.468121 0.518055 0.530774
13 2 0.495135 0.498223 0.520513
116 2 0.500981 0.500776 0.501339
26 2 0.483112 0.502049 0.506944
35 2 0.479357 0.506619 0.521646
103 2 0.482459 0.519777 0.508774
92 2 0.481347 0.52531 0.52512
67 2 0.500887 0.512668 0.511542
48 2 0.511992 0.513357 0.497338
104 2 0.515517 0.528184 0.508593
133 2 0.518941 0.508593 0.51307
2 2 0.530792 0.500929 0.506033
138 1 0.529279 0.531139 0.517704
91 2 0.530282 0.517352 0.50538
70 1 0.53871 0.506976 0.519524
134 1 0.547228 0.506888 0.503447
123 1 0.467274 0.528643 0.514322
10 2 0.487241 0.537361 0.510808
29 1 0.497854 0.548608 0.518197
40 2 0.512896 0.535485 0.52441
60 2 0.499531 0.528178 0.516545
63 1 0.527958 0.540693 0.501645
139 1 0.514239 0.54555 0.510982
115 1 0.497216 0.469176 0.534339
120 1 0.481274 0.472856 0.532264
45 1 0.48737 0.48791 0.539263
5 2 0.495523 0.481968 0.523279
59 1 0.504329 0.4816 0.546572
62 1 0.522499 0.483975 0.538901
102 2 0.507269 0.490081 0.531469
135 1 0.518475 0.500772 0.543034
49 1 0.500773 0.498644 0.545088
117 1 0.534719 0.495949 0.533324
69 2 0.486707 0.504092 0.535851
126 2 0.495004 0.51608 0.527923
98 1 0.473036 0.497863 0.534293
18 1 0.488326 0.520319 0.54151
107 1 0.506648 0.513478 0.540787
24 2 0.508459 0.506203 0.525022
4 2 0.514276 0.519793 0.524122
73 2 0.526782 0.512909 0.529988
75 1 0.494543 0.533481 0.531875
ITEM: TIMESTEP
9420000
ITEM: NUMBER OF ATOMS
141
ITEM: BOX BOUNDS pp pp pp
0.0000000000000000e+00 1.4356000000000000e+02
0.0000000000000000e+00 1.4356000000000000e+02
0.0000000000000000e+00 1.4356000000000000e+02
ITEM: ATOMS id type xs ys zs
121 1 0.491226 0.473396 0.469011
118 2 0.481662 0.490534 0.465729
140 1 0.488262 0.481208 0.454662
141 2 0.496453 0.491032 0.468417
16 1 0.522724 0.483021 0.457225
61 1 0.504174 0.477154 0.461118
36 1 0.510083 0.493797 0.453485
112 1 0.474423 0.505047 0.462826
41 1 0.49318 0.519207 0.456511
131 2 0.493045 0.500098 0.455044
44 1 0.506956 0.51103 0.451368
130 1 0.520968 0.506977 0.461498
132 2 0.503089 0.505872 0.467786
39 1 0.495985 0.535516 0.465351
28 1 0.492253 0.458231 0.492515
23 1 0.475368 0.459559 0.492581
106 2 0.499613 0.472384 0.496083
51 1 0.502154 0.462758 0.475842
82 1 0.525768 0.46252 0.47857
101 1 0.510053 0.456433 0.490654
58 2 0.530288 0.466397 0.499707
100 1 0.532203 0.478368 0.472793
97 2 0.458412 0.501577 0.48773
43 1 0.462786 0.487429 0.479958
20 2 0.485686 0.471089 0.484651
80 1 0.475088 0.476114 0.472486
105 1 0.472599 0.478063 0.491476
66 2 0.485197 0.487043 0.480807
11 2 0.488275 0.486594 0.498262
122 2 0.475482 0.498915 0.477561
96 2 0.47206 0.494159 0.496263
34 2 0.516645 0.475088 0.47234
110 2 0.514648 0.491702 0.469537
64 2 0.517537 0.474165 0.490626
22 2 0.501405 0.495915 0.483413
128 2 0.503776 0.478323 0.481408
93 2 0.514751 0.502867 0.494533
71 2 0.518658 0.487919 0.48434
57 2 0.506199 0.487017 0.495738
53 1 0.543833 0.488156 0.480641
108 2 0.533497 0.483072 0.492484
134 1 0.544214 0.498775 0.49538
15 2 0.531353 0.498486 0.486228
1 1 0.530067 0.493952 0.469805
33 2 0.468615 0.513724 0.476786
77 1 0.457149 0.516424 0.496402
109 2 0.47256 0.527022 0.485757
65 1 0.482328 0.523215 0.466493
25 2 0.486907 0.501747 0.490961
52 2 0.473111 0.511209 0.494219
84 2 0.489335 0.50616 0.473201
129 2 0.483591 0.516081 0.483238
85 2 0.492549 0.520189 0.500138
95 2 0.502087 0.529433 0.489444
55 2 0.49923 0.522334 0.474663
137 2 0.499011 0.511609 0.487029
7 2 0.517315 0.503812 0.477968
3 2 0.512459 0.520909 0.466762
68 2 0.52691 0.512891 0.493056
48 2 0.515076 0.521214 0.483099
83 2 0.509469 0.515522 0.500388
87 1 0.544877 0.517896 0.491489
19 1 0.545151 0.505484 0.480001
124 1 0.529489 0.5147 0.474625
63 1 0.536283 0.526528 0.505756
114 2 0.481672 0.53208 0.497807
94 2 0.485991 0.533955 0.477601
46 1 0.489611 0.542825 0.489492
74 1 0.504676 0.541572 0.478468
119 1 0.51973 0.535135 0.476461
125 2 0.515324 0.53883 0.49243
86 1 0.531184 0.528014 0.486078
56 2 0.486324 0.472158 0.503091
17 1 0.490161 0.468919 0.520133
113 1 0.497548 0.458793 0.508286
115 1 0.488088 0.473286 0.538163
81 2 0.512365 0.464878 0.504624
50 1 0.507391 0.466789 0.525467
30 1 0.525137 0.466497 0.516716
111 1 0.475811 0.4632 0.512409
21 1 0.448225 0.504662 0.506262
37 1 0.464128 0.473039 0.522249
12 2 0.458949 0.486629 0.500192
136 1 0.456405 0.490583 0.516314
54 2 0.47915 0.480154 0.525974
8 2 0.505253 0.478151 0.511087
90 2 0.473174 0.480676 0.507945
32 2 0.491515 0.483657 0.513879
88 2 0.477712 0.493963 0.517476
6 2 0.521918 0.480146 0.507314
14 2 0.512737 0.496032 0.510596
9 2 0.527244 0.493915 0.518116
102 2 0.518347 0.480458 0.525753
27 1 0.544515 0.493937 0.510375
76 2 0.526508 0.494903 0.501204
47 1 0.536726 0.479182 0.509853
127 1 0.537813 0.480149 0.526596
78 2 0.46373 0.532313 0.501138
42 1 0.459572 0.520696 0.514646
99 2 0.466586 0.503946 0.508857
35 2 0.4638 0.504718 0.524989
31 1 0.468029 0.520172 0.531546
13 2 0.496556 0.498213 0.519022
26 2 0.483997 0.505189 0.50538
103 2 0.474982 0.520683 0.508187
67 2 0.499164 0.514325 0.515053
126 2 0.47997 0.50992 0.521247
92 2 0.483977 0.5253 0.528882
24 2 0.509001 0.495651 0.528469
116 2 0.498879 0.500386 0.501788
104 2 0.520934 0.527125 0.501109
133 2 0.514415 0.516241 0.530503
2 2 0.521087 0.508882 0.509868
60 2 0.502569 0.527535 0.5251
72 2 0.50253 0.52913 0.507296
73 2 0.523017 0.503244 0.533648
91 2 0.537913 0.50911 0.506697
70 1 0.537129 0.504507 0.526403
138 1 0.531247 0.517384 0.522256
79 1 0.481878 0.544842 0.509987
38 1 0.501359 0.545782 0.500224
123 1 0.469672 0.533287 0.519233
10 2 0.487103 0.52816 0.513848
29 1 0.496885 0.542825 0.517327
40 2 0.515913 0.522257 0.515664
139 1 0.516557 0.541696 0.511634
98 1 0.464712 0.490413 0.53115
5 2 0.498735 0.483359 0.528096
120 1 0.478883 0.486433 0.542364
69 2 0.485262 0.495814 0.531417
59 1 0.498015 0.49224 0.540972
62 1 0.524278 0.473293 0.539261
89 1 0.50821 0.473258 0.539503
135 1 0.514759 0.489836 0.541627
117 1 0.530874 0.48904 0.537222
18 1 0.470363 0.501725 0.541684
45 1 0.490828 0.502189 0.549542
107 1 0.482479 0.511581 0.540148
4 2 0.496358 0.510185 0.530334
49 1 0.506901 0.507982 0.5432
75 1 0.496439 0.520646 0.541413
ITEM: TIMESTEP
9425000
ITEM: NUMBER OF ATOMS
141
ITEM: BOX BOUNDS pp pp pp
0.0000000000000000e+00 1.4356000000000000e+02
0.0000000000000000e+00 1.4356000000000000e+02
0.0000000000000000e+00 1.4356000000000000e+02
ITEM: ATOMS id type xs ys zs
121 1 0.485275 0.471285 0.46931
118 2 0.484035 0.501397 0.46351
140 1 0.491549 0.485804 0.458056
80 1 0.475043 0.486249 0.460504
61 1 0.501077 0.471038 0.464584
100 1 0.521454 0.47409 0.468733
36 1 0.510638 0.485206 0.460627
16 1 0.519023 0.500584 0.452906
53 1 0.527203 0.493807 0.465914
112 1 0.474927 0.51779 0.465827
131 2 0.490921 0.516273 0.457673
41 1 0.485791 0.531292 0.465993
130 1 0.500326 0.500135 0.454113
3 2 0.509284 0.515298 0.461695
1 1 0.528003 0.512296 0.464837
51 1 0.480044 0.457576 0.479206
28 1 0.501392 0.453575 0.495059
82 1 0.495264 0.462688 0.480409
101 1 0.514472 0.463327 0.496038
64 2 0.529051 0.471608 0.483653
43 1 0.46392 0.48748 0.474729
97 2 0.458017 0.499073 0.487407
12 2 0.470566 0.468242 0.498068
37 1 0.458119 0.481663 0.49194
96 2 0.467535 0.489901 0.500668
122 2 0.469542 0.50344 0.471763
20 2 0.471629 0.474527 0.480908
141 2 0.483048 0.486272 0.474982
66 2 0.475075 0.493102 0.486456
11 2 0.492019 0.490805 0.491294
128 2 0.485542 0.474507 0.487406
116 2 0.503781 0.498981 0.502213
110 2 0.515364 0.486342 0.478484
58 2 0.511662 0.470405 0.480389
34 2 0.499386 0.482004 0.47844
22 2 0.507168 0.485116 0.493451
71 2 0.523733 0.480743 0.495145
132 2 0.497919 0.496263 0.470024
108 2 0.534314 0.487835 0.481574
6 2 0.5417 0.477558 0.497417
134 1 0.550001 0.491425 0.489972
33 2 0.463784 0.520251 0.478523
77 1 0.456782 0.516037 0.497917
109 2 0.469055 0.524707 0.492946
25 2 0.485849 0.502416 0.479785
52 2 0.473082 0.509792 0.48821
84 2 0.483501 0.520131 0.482458
129 2 0.492225 0.508956 0.492781
65 1 0.475567 0.533746 0.478197
55 2 0.497592 0.514 0.47475
93 2 0.520501 0.496629 0.491678
137 2 0.504177 0.499131 0.484048
7 2 0.513883 0.501679 0.469826
48 2 0.514582 0.513833 0.480642
95 2 0.500891 0.523043 0.486946
83 2 0.508065 0.510885 0.495403
15 2 0.528423 0.503037 0.479388
68 2 0.525567 0.51136 0.496608
39 1 0.519054 0.526611 0.471703
124 1 0.542504 0.499421 0.472473
19 1 0.542331 0.506402 0.488729
119 1 0.53102 0.520282 0.480286
114 2 0.487872 0.528287 0.495339
94 2 0.491961 0.536402 0.481819
46 1 0.475778 0.54266 0.493352
44 1 0.503413 0.529168 0.469444
74 1 0.512511 0.536203 0.48294
125 2 0.516483 0.524945 0.492759
105 1 0.484736 0.459207 0.494635
23 1 0.490514 0.453826 0.509487
17 1 0.508094 0.460253 0.532427
115 1 0.477007 0.464799 0.516769
113 1 0.507926 0.459969 0.511386
81 2 0.518976 0.468198 0.52144
30 1 0.527598 0.467892 0.504228
90 2 0.465958 0.477678 0.510411
98 1 0.469517 0.477996 0.527091
136 1 0.45638 0.49121 0.515485
106 2 0.497966 0.471524 0.498567
111 1 0.494405 0.467137 0.516517
56 2 0.482719 0.478343 0.505611
54 2 0.488382 0.483815 0.523151
32 2 0.498028 0.483832 0.509318
88 2 0.475346 0.491665 0.517086
8 2 0.503968 0.47616 0.52462
57 2 0.512514 0.478511 0.50838
14 2 0.51944 0.494558 0.507975
24 2 0.517702 0.486579 0.522637
126 2 0.50458 0.497131 0.517695
9 2 0.517095 0.501963 0.525092
76 2 0.535148 0.495839 0.498329
102 2 0.531307 0.483664 0.512295
62 1 0.530357 0.474957 0.52857
127 1 0.538176 0.494833 0.522924
47 1 0.547929 0.487881 0.510422
27 1 0.548921 0.501748 0.50329
21 1 0.452394 0.499285 0.50151
99 2 0.465722 0.504843 0.506543
31 1 0.461668 0.50479 0.522802
78 2 0.464822 0.519911 0.512176
69 2 0.48816 0.499442 0.527688
85 2 0.491617 0.504806 0.512192
35 2 0.477264 0.509775 0.51968
26 2 0.482848 0.494869 0.503843
103 2 0.480757 0.515233 0.503257
10 2 0.488009 0.52697 0.512252
72 2 0.504259 0.524917 0.504758
42 1 0.476664 0.527341 0.524214
4 2 0.489875 0.519065 0.527853
60 2 0.503556 0.523833 0.520335
67 2 0.511411 0.511012 0.513084
104 2 0.520003 0.525533 0.50783
2 2 0.530523 0.505837 0.51191
138 1 0.516288 0.521156 0.534789
13 2 0.503748 0.508696 0.530047
87 1 0.541808 0.516311 0.50282
86 1 0.531487 0.53246 0.493528
91 2 0.529406 0.522648 0.522129
70 1 0.527949 0.509617 0.533955
79 1 0.474217 0.533911 0.505203
38 1 0.500817 0.543909 0.494364
123 1 0.487577 0.542988 0.507169
29 1 0.504882 0.541116 0.510895
40 2 0.516357 0.533219 0.522756
139 1 0.516496 0.540528 0.499289
63 1 0.534814 0.535156 0.510464
50 1 0.516244 0.477144 0.5377
120 1 0.478158 0.485389 0.537787
89 1 0.486726 0.466725 0.53074
18 1 0.470969 0.499818 0.532718
5 2 0.494632 0.480326 0.538813
59 1 0.496181 0.496378 0.543125
135 1 0.5083 0.491004 0.534128
117 1 0.529359 0.489658 0.538032
45 1 0.485147 0.509158 0.540754
107 1 0.470635 0.515853 0.534314
75 1 0.485395 0.529302 0.540209
49 1 0.501645 0.518089 0.543
133 2 0.501302 0.531983 0.532935
73 2 0.512986 0.503503 0.543005
92 2 0.490426 0.537139 0.523195
ITEM: TIMESTEP
9430000
ITEM: NUMBER OF ATOMS
141
ITEM: BOX BOUNDS pp pp pp
0.0000000000000000e+00 1.4356000000000000e+02
0.0000000000000000e+00 1.4356000000000000e+02
0.0000000000000000e+00 1.4356000000000000e+02
ITEM: ATOMS id type xs ys zs
121 1 0.479824 0.472 0.469191
140 1 0.491606 0.488463 0.455453
80 1 0.467417 0.493242 0.467862
61 1 0.498624 0.476879 0.467146
118 2 0.482294 0.502629 0.469022
36 1 0.515822 0.475703 0.46766
34 2 0.508611 0.493288 0.459055
112 1 0.464991 0.508948 0.467619
65 1 0.464614 0.525545 0.471148
130 1 0.49601 0.50473 0.457075
131 2 0.478361 0.517184 0.460742
16 1 0.511402 0.512336 0.460682
3 2 0.494511 0.522127 0.458398
41 1 0.487793 0.537547 0.466309
44 1 0.504475 0.536007 0.466184
51 1 0.481365 0.468934 0.485659
82 1 0.496137 0.464004 0.476272
105 1 0.488291 0.454195 0.497614
28 1 0.503857 0.456717 0.490884
101 1 0.518024 0.466267 0.49433
100 1 0.535071 0.473502 0.499684
43 1 0.457529 0.494422 0.48174
20 2 0.469103 0.482261 0.480141
90 2 0.469878 0.473703 0.495573
12 2 0.482283 0.485174 0.491466
122 2 0.473575 0.498112 0.482861
141 2 0.483235 0.487782 0.474118
66 2 0.465053 0.489962 0.49715
11 2 0.494485 0.488176 0.501679
128 2 0.495142 0.481549 0.483991
137 2 0.497134 0.494725 0.470291
71 2 0.506255 0.476544 0.498635
7 2 0.512593 0.49017 0.474982
58 2 0.509467 0.472806 0.48215
110 2 0.528423 0.473655 0.478254
22 2 0.506467 0.495282 0.491306
108 2 0.520056 0.482531 0.489227
15 2 0.523046 0.498779 0.484493
53 1 0.532661 0.48844 0.471993
64 2 0.536566 0.488148 0.48983