ITEM: TIMESTEP
4450000
ITEM: NUMBER OF ATOMS
141
ITEM: BOX BOUNDS pp pp pp
0.0000000000000000e+00 1.4356000000000000e+02
0.0000000000000000e+00 1.4356000000000000e+02
0.0000000000000000e+00 1.4356000000000000e+02
ITEM: ATOMS id type xs ys zs
120 1 0.491425 0.466114 0.46649
139 1 0.518548 0.465611 0.470498
46 1 0.469592 0.48383 0.469566
7 2 0.488763 0.480929 0.459193
105 1 0.478648 0.495921 0.4602
121 1 0.503446 0.486903 0.451992
77 1 0.519748 0.480817 0.45911
15 2 0.504142 0.477621 0.468553
18 1 0.513066 0.49838 0.4595
3 2 0.529663 0.498546 0.467354
134 1 0.486603 0.515448 0.459795
100 1 0.495782 0.500335 0.456481
58 2 0.501392 0.512433 0.470161
19 1 0.508133 0.516565 0.455768
63 1 0.523424 0.515521 0.464242
41 1 0.499882 0.531203 0.466354
80 1 0.478384 0.469743 0.475136
65 1 0.471027 0.465909 0.49032
140 1 0.488329 0.461507 0.485829
53 1 0.498667 0.452848 0.495248
130 1 0.503719 0.463317 0.477293
39 1 0.516291 0.458305 0.488343
122 2 0.502972 0.46952 0.493298
68 2 0.522525 0.470212 0.499895
74 1 0.531096 0.469577 0.48405
96 2 0.461868 0.495019 0.49081
36 1 0.46453 0.480178 0.499823
95 2 0.487975 0.486943 0.473998
132 2 0.495415 0.4761 0.481933
40 2 0.474571 0.484214 0.486794
78 2 0.477623 0.499955 0.486825
102 2 0.488501 0.490341 0.490317
90 2 0.483004 0.474738 0.496358
83 2 0.502377 0.495464 0.471824
81 2 0.515363 0.475999 0.483878
48 2 0.504092 0.488437 0.486495
109 2 0.527039 0.484312 0.488431
93 2 0.5173 0.488509 0.474612
52 2 0.514788 0.484928 0.497878
131 2 0.531293 0.481623 0.472331
79 1 0.54334 0.485729 0.483796
33 2 0.544271 0.495992 0.496218
5 2 0.532509 0.499685 0.483967
99 2 0.464565 0.500978 0.474193
70 1 0.450881 0.508216 0.495693
1 1 0.459712 0.516645 0.484006
87 1 0.460453 0.524667 0.498117
118 2 0.469869 0.51016 0.496711
82 1 0.472882 0.516759 0.472349
84 2 0.485213 0.528718 0.472997
4 2 0.475156 0.528674 0.487472
67 2 0.48741 0.504028 0.473007
26 2 0.48574 0.515683 0.485186
73 2 0.499522 0.52528 0.481563
88 2 0.498095 0.518478 0.497208
57 2 0.49876 0.504165 0.485887
34 2 0.514249 0.500237 0.492886
116 2 0.517234 0.505209 0.477443
32 2 0.514258 0.516435 0.4912
91 2 0.528423 0.509973 0.496503
106 2 0.514429 0.522768 0.475785
103 2 0.528457 0.516662 0.480541
47 1 0.543484 0.512513 0.490241
133 2 0.489878 0.53089 0.492947
23 1 0.492365 0.54111 0.481453
43 1 0.48517 0.546412 0.496244
86 1 0.509036 0.539802 0.479247
137 2 0.506645 0.532019 0.494896
115 1 0.524604 0.532452 0.487889
29 1 0.502759 0.548112 0.499755
138 1 0.46777 0.467613 0.510041
21 1 0.483076 0.457319 0.501941
56 2 0.495025 0.467686 0.507238
136 1 0.497291 0.45049 0.512611
127 1 0.480799 0.457737 0.517719
45 1 0.492659 0.466922 0.524662
117 1 0.471395 0.469845 0.527107
42 1 0.508143 0.462069 0.525722
89 1 0.51175 0.458055 0.505293
107 1 0.525957 0.463128 0.515315
51 1 0.460814 0.497389 0.507322
108 2 0.465075 0.484393 0.516398
22 2 0.48197 0.475505 0.513084
104 2 0.478381 0.489613 0.52436
60 2 0.474681 0.493949 0.502166
97 2 0.496252 0.482774 0.503041
114 2 0.48786 0.493123 0.511407
92 2 0.49932 0.481829 0.521081
94 2 0.499712 0.497297 0.523661
9 2 0.500918 0.49928 0.500767
24 2 0.510722 0.47278 0.512952
111 1 0.519791 0.475951 0.528096
54 2 0.528967 0.494607 0.500241
13 2 0.510408 0.491776 0.512911
72 2 0.525916 0.482636 0.512304
66 2 0.52642 0.498199 0.51536
76 2 0.515355 0.491789 0.528441
44 1 0.537481 0.476776 0.50188
49 1 0.535595 0.472825 0.52392
50 1 0.543847 0.488825 0.514698
119 1 0.4646 0.500236 0.524643
141 2 0.461823 0.513526 0.509468
112 1 0.46555 0.529317 0.513717
61 1 0.464569 0.517289 0.528523
20 2 0.47997 0.520557 0.503597
128 2 0.476837 0.504868 0.514258
2 2 0.485836 0.506549 0.50006
11 2 0.481415 0.518042 0.520971
10 2 0.496319 0.525043 0.5146
12 2 0.495004 0.509769 0.512933
55 2 0.496747 0.514247 0.527967
125 2 0.511976 0.50833 0.526206
71 2 0.513123 0.507516 0.507463
6 2 0.512457 0.523184 0.506029
14 2 0.509352 0.526069 0.525218
110 2 0.526453 0.514516 0.514693
38 1 0.528503 0.52592 0.502571
75 1 0.536832 0.504435 0.526134
129 2 0.539605 0.5068 0.508246
31 1 0.470945 0.538647 0.501412
59 1 0.476686 0.534343 0.525002
85 2 0.492195 0.53534 0.525291
126 2 0.484967 0.538276 0.510558
37 1 0.493351 0.55078 0.514331
101 1 0.520195 0.541076 0.500286
123 1 0.521651 0.531664 0.517852
35 2 0.506613 0.538395 0.511444
17 1 0.511856 0.54276 0.526808
27 1 0.486444 0.479641 0.533592
69 2 0.492297 0.494079 0.537515
124 1 0.505352 0.479444 0.537505
98 1 0.532276 0.489503 0.532008
25 2 0.481606 0.504345 0.530012
64 2 0.493346 0.508473 0.544509
30 1 0.480537 0.521149 0.537
16 1 0.524187 0.503853 0.537111
8 2 0.507461 0.500446 0.539519
135 1 0.50997 0.515964 0.541601
62 1 0.524401 0.521702 0.5305
113 1 0.499814 0.529598 0.539557
28 1 0.517182 0.530569 0.541745
ITEM: TIMESTEP
4455000
ITEM: NUMBER OF ATOMS
141
ITEM: BOX BOUNDS pp pp pp
0.0000000000000000e+00 1.4356000000000000e+02
0.0000000000000000e+00 1.4356000000000000e+02
0.0000000000000000e+00 1.4356000000000000e+02
ITEM: ATOMS id type xs ys zs
7 2 0.479971 0.493078 0.468741
100 1 0.484215 0.501081 0.454265
80 1 0.487196 0.481699 0.459663
121 1 0.502414 0.471485 0.465232
83 2 0.496105 0.493546 0.470221
77 1 0.52119 0.477214 0.465841
18 1 0.506994 0.487244 0.459463
105 1 0.473857 0.506957 0.464387
134 1 0.490366 0.51839 0.460066
19 1 0.503634 0.529375 0.466028
82 1 0.476751 0.524892 0.467497
58 2 0.500544 0.504151 0.459619
3 2 0.515785 0.502515 0.467241
63 1 0.516767 0.517622 0.461503
41 1 0.487666 0.536827 0.4619
65 1 0.470105 0.469859 0.482668
120 1 0.497932 0.458469 0.473979
140 1 0.483309 0.458407 0.482341
21 1 0.482209 0.46016 0.500408
130 1 0.494628 0.449603 0.493622
132 2 0.49712 0.466304 0.488617
39 1 0.510016 0.45501 0.485109
68 2 0.522423 0.464247 0.492072
139 1 0.528306 0.462322 0.474502
46 1 0.469165 0.481201 0.47097
99 2 0.46634 0.497498 0.477468
36 1 0.462844 0.484651 0.488767
40 2 0.486519 0.493988 0.482723
95 2 0.487338 0.476791 0.475784
102 2 0.500542 0.482896 0.48367
90 2 0.481355 0.475762 0.491491
60 2 0.480157 0.490421 0.498954
122 2 0.510211 0.47283 0.495301
15 2 0.513384 0.469923 0.478638
81 2 0.527571 0.477923 0.483107
48 2 0.512266 0.491708 0.494888
93 2 0.513349 0.488729 0.47636
109 2 0.528765 0.494252 0.491975
131 2 0.531089 0.491454 0.47358
74 1 0.54298 0.487375 0.485723
96 2 0.459999 0.500575 0.491315
1 1 0.463515 0.514901 0.478029
87 1 0.46312 0.517885 0.493383
67 2 0.486449 0.507125 0.473852
57 2 0.502582 0.499761 0.483999
78 2 0.475342 0.503747 0.489591
4 2 0.477487 0.521171 0.48552
26 2 0.49034 0.523395 0.476349
2 2 0.49136 0.511529 0.488735
5 2 0.518739 0.505054 0.483224
73 2 0.50362 0.525732 0.483964
34 2 0.506824 0.512856 0.495421
116 2 0.504728 0.51319 0.473249
32 2 0.519665 0.523546 0.490982
91 2 0.51967 0.505868 0.498747
103 2 0.525047 0.518716 0.477375
79 1 0.537236 0.50465 0.48148
47 1 0.549696 0.501472 0.493937
115 1 0.534897 0.517229 0.491826
31 1 0.469229 0.532588 0.495145
133 2 0.491483 0.527827 0.493884
84 2 0.480922 0.536969 0.482666
23 1 0.496386 0.541378 0.478077
29 1 0.498141 0.546168 0.493836
106 2 0.516327 0.531745 0.475222
86 1 0.515686 0.542989 0.486728
101 1 0.524142 0.537098 0.500847
53 1 0.492078 0.448797 0.509584
56 2 0.496021 0.468214 0.506314
136 1 0.494291 0.459999 0.52024
127 1 0.477879 0.458897 0.516656
117 1 0.483281 0.469191 0.528478
89 1 0.508463 0.457537 0.504859
42 1 0.511242 0.458196 0.521599
107 1 0.526197 0.461837 0.507981
138 1 0.467684 0.474772 0.501667
51 1 0.461087 0.488854 0.507392
108 2 0.468065 0.482486 0.52096
119 1 0.461682 0.500352 0.520047
22 2 0.481487 0.478362 0.511494
97 2 0.496759 0.482152 0.49917
114 2 0.491211 0.491526 0.511589
92 2 0.498835 0.477909 0.52025
128 2 0.476416 0.495237 0.515198
27 1 0.482669 0.48504 0.528742
52 2 0.524079 0.478981 0.499921
24 2 0.513139 0.4718 0.512795
54 2 0.525327 0.493684 0.508504
13 2 0.50751 0.487284 0.511298
76 2 0.515567 0.480947 0.525071
66 2 0.518826 0.495696 0.522976
94 2 0.501585 0.495141 0.523935
72 2 0.529897 0.47895 0.514825
33 2 0.540046 0.488808 0.5047
44 1 0.539868 0.473083 0.498625
70 1 0.451828 0.507155 0.503975
141 2 0.464179 0.521618 0.511658
61 1 0.465445 0.516192 0.529251
25 2 0.476108 0.51186 0.518814
88 2 0.4958 0.517193 0.506216
118 2 0.467794 0.503889 0.504564
20 2 0.479093 0.522073 0.504833
12 2 0.483622 0.506903 0.504792
10 2 0.491867 0.506578 0.518477
11 2 0.486432 0.524536 0.520755
9 2 0.496399 0.499132 0.497895
69 2 0.481177 0.514939 0.533775
71 2 0.507634 0.504439 0.512099
6 2 0.516101 0.520759 0.507559
110 2 0.526189 0.508674 0.516943
35 2 0.503778 0.525442 0.518915
85 2 0.495494 0.532834 0.532489
49 1 0.541557 0.493815 0.521539
38 1 0.533038 0.524775 0.509451
75 1 0.543519 0.514645 0.518234
129 2 0.536637 0.50522 0.503653
112 1 0.474506 0.534469 0.514819
43 1 0.481023 0.540832 0.503222
59 1 0.48741 0.543144 0.520648
126 2 0.493424 0.53372 0.509165
37 1 0.490048 0.551807 0.506629
137 2 0.507073 0.53104 0.498857
123 1 0.517491 0.536605 0.517043
17 1 0.512947 0.547014 0.504878
28 1 0.503183 0.543219 0.51927
45 1 0.501483 0.463502 0.534653
104 2 0.473516 0.500273 0.530873
64 2 0.49007 0.499968 0.535968
111 1 0.525495 0.465538 0.524883
8 2 0.50034 0.483358 0.536203
124 1 0.515611 0.472957 0.539641
16 1 0.516683 0.49068 0.539736
98 1 0.529947 0.485936 0.532484
55 2 0.496585 0.515064 0.531145
30 1 0.477405 0.532224 0.531455
125 2 0.511927 0.51167 0.526031
113 1 0.523116 0.518265 0.539564
135 1 0.504527 0.504825 0.540044
62 1 0.524871 0.52362 0.52517
50 1 0.532045 0.503524 0.532091
14 2 0.510105 0.526082 0.532994
ITEM: TIMESTEP
4460000
ITEM: NUMBER OF ATOMS
141
ITEM: BOX BOUNDS pp pp pp
0.0000000000000000e+00 1.4356000000000000e+02
0.0000000000000000e+00 1.4356000000000000e+02
0.0000000000000000e+00 1.4356000000000000e+02
ITEM: ATOMS id type xs ys zs
140 1 0.507592 0.46751 0.464759
95 2 0.486 0.486928 0.457858
80 1 0.499906 0.506213 0.449715
100 1 0.48143 0.50377 0.455345
83 2 0.496142 0.497098 0.464009
46 1 0.477262 0.475689 0.46793
121 1 0.523698 0.481676 0.465757
18 1 0.505228 0.483539 0.459352
105 1 0.477701 0.518337 0.463251
134 1 0.493623 0.520414 0.456803
19 1 0.512111 0.518577 0.45462
58 2 0.512208 0.499127 0.463757
106 2 0.519434 0.521511 0.468696
41 1 0.490687 0.539045 0.467166
21 1 0.486011 0.470219 0.479332
132 2 0.486234 0.476211 0.496591
127 1 0.468664 0.472559 0.499586
130 1 0.498091 0.456774 0.495439
120 1 0.500902 0.464124 0.479083
39 1 0.51487 0.452655 0.490904
77 1 0.51959 0.466515 0.477008
139 1 0.530036 0.460235 0.489048
65 1 0.457031 0.484157 0.488446
36 1 0.464669 0.488109 0.471908
96 2 0.45756 0.497088 0.501813
7 2 0.481341 0.493118 0.474515
40 2 0.487784 0.491112 0.488847
102 2 0.495167 0.481881 0.473635
90 2 0.473204 0.481734 0.484784
78 2 0.469551 0.500171 0.485923
131 2 0.527479 0.479449 0.48336
9 2 0.498847 0.499263 0.497712
15 2 0.515741 0.469379 0.491999
122 2 0.501256 0.478656 0.491556
81 2 0.513904 0.489287 0.492064
93 2 0.511118 0.480542 0.478107
57 2 0.502927 0.497863 0.480049
52 2 0.528202 0.486571 0.498428
74 1 0.541653 0.475183 0.493518
79 1 0.536725 0.492533 0.473744
47 1 0.543908 0.492372 0.489014
99 2 0.468678 0.504485 0.46783
1 1 0.4595 0.514355 0.492264
82 1 0.459848 0.517131 0.474777
67 2 0.487219 0.508146 0.472741
4 2 0.475276 0.516169 0.482284
26 2 0.492418 0.523839 0.474026
2 2 0.482958 0.505451 0.493327
133 2 0.487359 0.524474 0.491266
34 2 0.499704 0.512826 0.485703
137 2 0.503891 0.530196 0.495396
109 2 0.52736 0.500607 0.48841
3 2 0.520245 0.493546 0.476814
5 2 0.515332 0.509648 0.480243
116 2 0.50311 0.513374 0.469457
32 2 0.509187 0.526653 0.480178
91 2 0.519954 0.532977 0.496245
103 2 0.529435 0.518267 0.48278
110 2 0.527412 0.519984 0.499898
63 1 0.527019 0.506459 0.466428
115 1 0.541051 0.508102 0.478083
31 1 0.463417 0.529798 0.488042
84 2 0.477565 0.529895 0.475198
73 2 0.496161 0.53841 0.483563
43 1 0.477445 0.539376 0.492699
29 1 0.494467 0.547815 0.496558
23 1 0.504783 0.531981 0.464914
101 1 0.510722 0.547579 0.490971
86 1 0.52155 0.537784 0.479419
53 1 0.481226 0.46002 0.495813
136 1 0.480579 0.454219 0.510682
42 1 0.491306 0.46204 0.525216
22 2 0.483265 0.470715 0.513305
68 2 0.499265 0.46935 0.506231
89 1 0.49911 0.452497 0.510403
107 1 0.515674 0.45683 0.507466
24 2 0.509069 0.465547 0.518696
138 1 0.468264 0.468965 0.52064
51 1 0.45997 0.482943 0.511983
108 2 0.468877 0.486003 0.52627
97 2 0.492672 0.485468 0.505669
60 2 0.472545 0.488142 0.497767
56 2 0.496102 0.477647 0.521214
128 2 0.47733 0.488611 0.512861
114 2 0.501134 0.492289 0.516751
72 2 0.527714 0.4707 0.504053
92 2 0.513404 0.482956 0.524775
13 2 0.513947 0.478651 0.50739
76 2 0.526627 0.488193 0.5162
8 2 0.516677 0.499021 0.523188
124 1 0.526815 0.472189 0.523586
44 1 0.541219 0.476068 0.511652
54 2 0.529291 0.502408 0.505039
33 2 0.541583 0.492596 0.506038
98 1 0.540889 0.486797 0.525049
49 1 0.537072 0.502587 0.521477
87 1 0.461833 0.513498 0.515258
70 1 0.455352 0.498595 0.520439
118 2 0.471786 0.503612 0.504317
12 2 0.488133 0.500818 0.508768
141 2 0.472838 0.523541 0.520784
25 2 0.474981 0.502349 0.521401
88 2 0.495756 0.516111 0.502237
20 2 0.474006 0.520083 0.501238
10 2 0.491939 0.505295 0.524216
11 2 0.483638 0.514663 0.513097
48 2 0.513623 0.494239 0.507622
94 2 0.503916 0.507662 0.512134
66 2 0.522099 0.51267 0.515402
71 2 0.511838 0.50895 0.497714
6 2 0.511762 0.523076 0.507787
35 2 0.497934 0.522382 0.517285
125 2 0.508209 0.512784 0.527576
123 1 0.533377 0.523407 0.529875
75 1 0.539115 0.519623 0.514072
129 2 0.540832 0.510514 0.494505
30 1 0.486127 0.533794 0.52374
112 1 0.474122 0.534893 0.508909
59 1 0.488686 0.545655 0.51258
126 2 0.489614 0.530893 0.505476
85 2 0.500108 0.52764 0.534094
37 1 0.501006 0.538577 0.52126
17 1 0.512944 0.53984 0.509666
28 1 0.513027 0.527946 0.524316
38 1 0.528684 0.532641 0.51505
111 1 0.50401 0.470569 0.534791
27 1 0.48228 0.474358 0.534603
104 2 0.486174 0.489332 0.527702
117 1 0.494314 0.482716 0.54471
64 2 0.501695 0.493499 0.532867
135 1 0.498556 0.497752 0.547926
45 1 0.511734 0.484574 0.544542
16 1 0.52704 0.489002 0.534769
113 1 0.515769 0.500228 0.540628
119 1 0.465906 0.498564 0.537581
61 1 0.467882 0.513986 0.533329
69 2 0.482985 0.503585 0.540315
55 2 0.485153 0.51856 0.531288
14 2 0.498274 0.510691 0.542539
62 1 0.513903 0.519282 0.541803
50 1 0.526031 0.509085 0.531345
ITEM: TIMESTEP
4465000
ITEM: NUMBER OF ATOMS
141
ITEM: BOX BOUNDS pp pp pp
0.0000000000000000e+00 1.4356000000000000e+02
0.0000000000000000e+00 1.4356000000000000e+02
0.0000000000000000e+00 1.4356000000000000e+02
ITEM: ATOMS id type xs ys zs
140 1 0.515896 0.465413 0.471845
95 2 0.493613 0.477417 0.460661
7 2 0.478568 0.487221 0.465392
80 1 0.502537 0.48732 0.447404
100 1 0.489698 0.494727 0.454685
121 1 0.524174 0.478113 0.461414
18 1 0.506402 0.46591 0.45858
58 2 0.508597 0.48201 0.463995
79 1 0.520152 0.49222 0.455491
105 1 0.475082 0.503754 0.459657
134 1 0.492907 0.510729 0.461681
41 1 0.496444 0.528626 0.461989
19 1 0.509987 0.521308 0.457334
116 2 0.505414 0.500814 0.459197
63 1 0.521585 0.506093 0.462133
86 1 0.524283 0.521208 0.471609
21 1 0.479853 0.464117 0.486155
120 1 0.490526 0.464745 0.472095
130 1 0.4988 0.45837 0.489671
39 1 0.514304 0.463828 0.486922
46 1 0.471591 0.475868 0.479115
127 1 0.461198 0.481013 0.490913
36 1 0.46262 0.489362 0.470766
138 1 0.456958 0.496475 0.483473
132 2 0.479428 0.480945 0.494704
40 2 0.493819 0.491096 0.489729
102 2 0.487131 0.482157 0.477393
90 2 0.472307 0.494511 0.484031
83 2 0.496025 0.495088 0.470088
122 2 0.493282 0.473995 0.491689
67 2 0.484683 0.50537 0.477707
57 2 0.502102 0.475757 0.478527
15 2 0.516479 0.478874 0.495036
81 2 0.510429 0.49509 0.489433
93 2 0.517652 0.482433 0.478084
3 2 0.514357 0.497214 0.473897
131 2 0.527499 0.488592 0.490306
52 2 0.529385 0.477846 0.50296
139 1 0.530685 0.469381 0.487947
77 1 0.53461 0.485594 0.473718
74 1 0.542517 0.485589 0.494366
99 2 0.469401 0.509538 0.47474
65 1 0.454527 0.513545 0.486231
78 2 0.469428 0.508368 0.493944
82 1 0.466297 0.526999 0.489431
1 1 0.460074 0.517735 0.5021
2 2 0.483754 0.502729 0.493609
4 2 0.482107 0.519696 0.487191
88 2 0.496665 0.512932 0.494816
26 2 0.495347 0.519809 0.477168
84 2 0.481974 0.52036 0.469053
34 2 0.500615 0.504717 0.481891
106 2 0.508514 0.513067 0.470723
5 2 0.519534 0.510082 0.482969
32 2 0.508075 0.523582 0.485838
71 2 0.513576 0.51092 0.499488
47 1 0.545361 0.501211 0.487538
109 2 0.530058 0.504614 0.494772
103 2 0.535819 0.518683 0.48617
115 1 0.532787 0.501875 0.475448
31 1 0.480122 0.536886 0.484944
133 2 0.492981 0.52879 0.495636
73 2 0.495122 0.534832 0.4807
43 1 0.493866 0.54544 0.494658
91 2 0.522943 0.527881 0.486681
23 1 0.511548 0.532792 0.471768
101 1 0.509303 0.539766 0.490216
53 1 0.483419 0.461998 0.504539
42 1 0.499327 0.471595 0.537274
89 1 0.490831 0.461718 0.520232
27 1 0.475523 0.468457 0.517454
68 2 0.504113 0.467466 0.504574
107 1 0.497434 0.452922 0.506202
24 2 0.511322 0.458891 0.517379
72 2 0.520903 0.462721 0.5029
124 1 0.527091 0.467939 0.516872
51 1 0.458802 0.477692 0.508939
70 1 0.459141 0.492786 0.517747
136 1 0.46937 0.468831 0.499073
60 2 0.467717 0.490343 0.499796
108 2 0.473979 0.484693 0.513963
22 2 0.487537 0.47681 0.508037
128 2 0.486844 0.492637 0.505923
104 2 0.497683 0.48981 0.516765
97 2 0.502409 0.485156 0.502549
56 2 0.500827 0.474865 0.520752
114 2 0.510649 0.502667 0.517049
92 2 0.509642 0.486453 0.526927
13 2 0.514845 0.479802 0.512634
76 2 0.526325 0.492595 0.52159
48 2 0.51813 0.494795 0.50339
44 1 0.539887 0.481565 0.517546
33 2 0.533822 0.492898 0.507425
49 1 0.543027 0.504983 0.519747
96 2 0.456507 0.501165 0.502811
87 1 0.459799 0.510479 0.518139
112 1 0.463816 0.527147 0.513985
118 2 0.473423 0.500832 0.511154
20 2 0.479245 0.516125 0.503289
12 2 0.490129 0.506582 0.513917
25 2 0.483444 0.496161 0.523101
10 2 0.497761 0.501059 0.531363
11 2 0.476294 0.514688 0.519505
35 2 0.493802 0.518811 0.52664
126 2 0.49102 0.526086 0.512028
9 2 0.502349 0.500503 0.503252
110 2 0.529676 0.522566 0.50183
137 2 0.509103 0.526657 0.501739
8 2 0.524951 0.508549 0.527383
94 2 0.503432 0.515931 0.510947
66 2 0.518382 0.521767 0.515334
125 2 0.510349 0.51441 0.527789
54 2 0.527871 0.507022 0.511555
129 2 0.542286 0.510471 0.501685
75 1 0.536528 0.520401 0.517923
30 1 0.478815 0.534103 0.520568
59 1 0.474581 0.532744 0.503567
37 1 0.494301 0.539375 0.527548
29 1 0.490571 0.543719 0.511651
6 2 0.505017 0.531777 0.516503
28 1 0.519416 0.53596 0.522499
17 1 0.50749 0.545948 0.507469
38 1 0.522654 0.537649 0.50196
117 1 0.488166 0.481362 0.528128
119 1 0.471254 0.480112 0.529658
135 1 0.49994 0.487055 0.540714
69 2 0.484106 0.493587 0.539506
111 1 0.514859 0.470771 0.529035
45 1 0.516004 0.482567 0.54242
16 1 0.529157 0.494127 0.53679
64 2 0.513191 0.499829 0.535812
98 1 0.531844 0.480001 0.530806
141 2 0.469209 0.521325 0.53258
61 1 0.467436 0.500489 0.532317
55 2 0.481948 0.510233 0.534553
85 2 0.484079 0.528219 0.535865
14 2 0.499148 0.515481 0.542569
50 1 0.539521 0.511862 0.534306
113 1 0.51698 0.513795 0.544641
62 1 0.504881 0.529827 0.536627
123 1 0.525505 0.523925 0.533124
ITEM: TIMESTEP
4470000
ITEM: NUMBER OF ATOMS
141
ITEM: BOX BOUNDS pp pp pp
0.0000000000000000e+00 1.4356000000000000e+02
0.0000000000000000e+00 1.4356000000000000e+02
0.0000000000000000e+00 1.4356000000000000e+02
ITEM: ATOMS id type xs ys zs
120 1 0.501745 0.47335 0.464307
36 1 0.467032 0.485707 0.468274
95 2 0.497348 0.489872 0.464899
46 1 0.48621 0.477864 0.470978
18 1 0.519934 0.473794 0.462407
80 1 0.514094 0.490139 0.461126
116 2 0.510284 0.500497 0.473095
79 1 0.533565 0.488084 0.465311
100 1 0.488355 0.503382 0.457125
105 1 0.471757 0.505341 0.464073
134 1 0.478878 0.519294 0.467597
19 1 0.506818 0.5064 0.45704
63 1 0.523954 0.502918 0.461199
86 1 0.515081 0.522115 0.461697
41 1 0.495112 0.519334 0.459652
136 1 0.466391 0.465456 0.493419
53 1 0.482526 0.458994 0.476575
107 1 0.48887 0.455138 0.494503
122 2 0.498757 0.460001 0.482806
130 1 0.513704 0.456567 0.491505
140 1 0.513915 0.464081 0.475711
39 1 0.528679 0.461541 0.485906
15 2 0.510438 0.463053 0.506342
138 1 0.453205 0.494533 0.498626
127 1 0.45909 0.482219 0.485801
99 2 0.466389 0.498933 0.481024
21 1 0.471405 0.469912 0.476301
132 2 0.482194 0.470915 0.488366
7 2 0.481906 0.493801 0.473691
40 2 0.475562 0.48368 0.48465
102 2 0.498564 0.477009 0.484018
83 2 0.497076 0.492709 0.482989
60 2 0.47023 0.495737 0.496956
57 2 0.496158 0.46922 0.498187
3 2 0.523943 0.493028 0.478471
58 2 0.511591 0.482089 0.475709
93 2 0.513316 0.472004 0.48944
48 2 0.50621 0.48414 0.496956
131 2 0.524857 0.483466 0.492303
121 1 0.528317 0.475226 0.477275
139 1 0.538261 0.473353 0.493128
77 1 0.538263 0.487641 0.482771
74 1 0.54296 0.489182 0.497862
115 1 0.538623 0.503818 0.476513
47 1 0.545144 0.505414 0.491819
65 1 0.457318 0.510023 0.499669
82 1 0.464858 0.516202 0.478878
67 2 0.494744 0.505279 0.472494
31 1 0.47711 0.527678 0.486219
78 2 0.47247 0.511527 0.492339
90 2 0.485437 0.502333 0.494997
84 2 0.4812 0.50825 0.479043
4 2 0.488818 0.520621 0.494396
26 2 0.491518 0.523492 0.477299
106 2 0.505879 0.516595 0.474104
34 2 0.500624 0.509323 0.487529
81 2 0.513239 0.498076 0.489312
5 2 0.516487 0.513217 0.489294
32 2 0.503319 0.526823 0.488512
54 2 0.529752 0.500891 0.491247
109 2 0.52232 0.511878 0.473253
129 2 0.532377 0.516165 0.486389
59 1 0.467512 0.537596 0.50101
73 2 0.483624 0.537096 0.499188
91 2 0.514117 0.540565 0.486924
23 1 0.502361 0.533364 0.470065
101 1 0.490814 0.538366 0.483543
103 2 0.520334 0.526649 0.480535
38 1 0.498346 0.547262 0.495563
28 1 0.528983 0.53233 0.493896
89 1 0.481083 0.461833 0.521928
27 1 0.465715 0.467052 0.511821
24 2 0.495134 0.461671 0.513268
72 2 0.525893 0.464745 0.503207
51 1 0.457234 0.477721 0.500939
70 1 0.453912 0.504326 0.517172
22 2 0.463458 0.486061 0.513447
68 2 0.479059 0.46351 0.504536
108 2 0.473988 0.479671 0.501609
128 2 0.48828 0.487461 0.496281
104 2 0.485539 0.474949 0.513154
118 2 0.481467 0.491201 0.510779
12 2 0.496148 0.494266 0.516658
124 1 0.514359 0.469978 0.522732
97 2 0.502464 0.477125 0.511873
76 2 0.528098 0.493981 0.506259
13 2 0.518003 0.477691 0.506341
8 2 0.524472 0.483995 0.52203
114 2 0.512893 0.490603 0.513006
52 2 0.533998 0.478795 0.508581
44 1 0.540571 0.491786 0.517408
1 1 0.458893 0.523842 0.492476
96 2 0.470065 0.505677 0.511097
87 1 0.458065 0.521244 0.51209
61 1 0.465537 0.510461 0.528924
9 2 0.500514 0.500393 0.501732
141 2 0.4761 0.517769 0.519095
2 2 0.489551 0.510819 0.508772
20 2 0.474053 0.522752 0.504241
11 2 0.48932 0.527203 0.511405
25 2 0.481333 0.503746 0.52243
71 2 0.515651 0.505618 0.504892
88 2 0.502132 0.516179 0.502914
35 2 0.506783 0.506951 0.517889
110 2 0.527001 0.516404 0.501305
94 2 0.517921 0.518725 0.515101
66 2 0.526279 0.505824 0.518142
64 2 0.515508 0.498341 0.527821
137 2 0.515607 0.526596 0.500684
6 2 0.518348 0.527855 0.529176
126 2 0.505178 0.526148 0.517239
33 2 0.541368 0.506802 0.509672
49 1 0.542906 0.507767 0.526301
75 1 0.542144 0.523334 0.499491
50 1 0.536211 0.519634 0.516646
43 1 0.489955 0.544128 0.515052
112 1 0.473846 0.539323 0.516692
133 2 0.500859 0.533828 0.503726
30 1 0.483385 0.532075 0.529268
29 1 0.503624 0.54282 0.523093
123 1 0.528924 0.532932 0.512116
17 1 0.51422 0.542855 0.508978
111 1 0.508359 0.473896 0.537982
119 1 0.466861 0.4943 0.526796
56 2 0.496288 0.472178 0.526808
117 1 0.471862 0.477071 0.524867
69 2 0.4871 0.486225 0.526112
42 1 0.494644 0.48646 0.540559
92 2 0.506376 0.486558 0.526655
135 1 0.505656 0.499218 0.54767
45 1 0.519445 0.485791 0.538329
98 1 0.531497 0.49675 0.531854
10 2 0.497379 0.500215 0.531622
55 2 0.480472 0.517349 0.535438
85 2 0.493992 0.516777 0.523955
14 2 0.479233 0.496436 0.53715
125 2 0.509098 0.514287 0.533701
113 1 0.520762 0.502006 0.543744
62 1 0.494745 0.511192 0.54429
37 1 0.500665 0.528717 0.533425
16 1 0.528244 0.515222 0.530959
ITEM: TIMESTEP
4475000
ITEM: NUMBER OF ATOMS
141
ITEM: BOX BOUNDS pp pp pp
0.0000000000000000e+00 1.4356000000000000e+02
0.0000000000000000e+00 1.4356000000000000e+02
0.0000000000000000e+00 1.4356000000000000e+02
ITEM: ATOMS id type xs ys zs
18 1 0.512645 0.471347 0.469881
120 1 0.49381 0.472633 0.460881
36 1 0.464761 0.489436 0.470547
46 1 0.489352 0.487427 0.451987
95 2 0.49017 0.49137 0.468458
100 1 0.499826 0.502228 0.454665
21 1 0.478575 0.479281 0.466867
80 1 0.504334 0.486099 0.462134
79 1 0.522991 0.482289 0.464156
134 1 0.477816 0.497889 0.45879
82 1 0.479106 0.518749 0.466831
67 2 0.495952 0.520205 0.460076
7 2 0.495082 0.508873 0.472042
63 1 0.526034 0.499651 0.463001
19 1 0.514529 0.5118 0.456833
109 2 0.52419 0.517183 0.468552
86 1 0.518507 0.534914 0.467876
115 1 0.540005 0.504847 0.472271
41 1 0.50158 0.537436 0.469574
136 1 0.463397 0.467592 0.499151
27 1 0.479447 0.463952 0.489621
53 1 0.487541 0.467083 0.473866
122 2 0.493923 0.471523 0.48942
140 1 0.502842 0.461942 0.475933
39 1 0.518889 0.459253 0.48323
130 1 0.509366 0.45976 0.498877
72 2 0.528893 0.465718 0.497
127 1 0.467903 0.472394 0.483419
51 1 0.454247 0.484209 0.502836
138 1 0.459136 0.490065 0.487614
132 2 0.473312 0.483036 0.495902
40 2 0.476951 0.497789 0.477495
102 2 0.483303 0.482617 0.482379
83 2 0.493887 0.497859 0.483124
90 2 0.481611 0.496433 0.493399
121 1 0.528056 0.472759 0.482635
93 2 0.511654 0.472474 0.487597
3 2 0.515469 0.485647 0.479591
58 2 0.499072 0.480279 0.477198
48 2 0.504554 0.485965 0.492197
131 2 0.52648 0.487814 0.492639
81 2 0.509556 0.500964 0.487553
139 1 0.542618 0.481913 0.493818
77 1 0.53685 0.4884 0.477433
74 1 0.545431 0.493114 0.505871
105 1 0.460459 0.503638 0.477039
99 2 0.471294 0.50691 0.49122
1 1 0.46102 0.519088 0.497063
84 2 0.484942 0.511706 0.484859
26 2 0.492102 0.525462 0.477578
34 2 0.502577 0.51752 0.487044
20 2 0.480902 0.525409 0.491923
9 2 0.497406 0.498416 0.49968
116 2 0.510865 0.501723 0.470543
54 2 0.525052 0.502424 0.47838
106 2 0.507975 0.522701 0.469888
5 2 0.517344 0.517252 0.485104
137 2 0.528013 0.520369 0.501362
91 2 0.509128 0.53146 0.483863
103 2 0.527578 0.529014 0.483227
110 2 0.524549 0.504388 0.496383
129 2 0.536147 0.513765 0.485722
47 1 0.541769 0.498516 0.48982
75 1 0.544677 0.511227 0.502025
31 1 0.468801 0.520286 0.480151
101 1 0.492949 0.540172 0.48593
73 2 0.495748 0.530176 0.497117
38 1 0.477947 0.536471 0.476996
23 1 0.512742 0.546472 0.479057
17 1 0.523442 0.540955 0.492154
29 1 0.506733 0.543083 0.499264
28 1 0.5393 0.531414 0.49415
107 1 0.492027 0.460557 0.502944
68 2 0.490776 0.46407 0.520663
89 1 0.487818 0.469163 0.536704
24 2 0.504916 0.460577 0.515428
15 2 0.521377 0.46455 0.51121
124 1 0.531572 0.476698 0.525378
22 2 0.468823 0.488233 0.528121
108 2 0.463718 0.477444 0.516113
70 1 0.455684 0.494796 0.515518
104 2 0.479284 0.473258 0.507968
117 1 0.476011 0.473087 0.525913
60 2 0.467924 0.499577 0.504482
128 2 0.489901 0.48425 0.49896
56 2 0.489641 0.480534 0.520665
118 2 0.47755 0.488211 0.513242
12 2 0.489484 0.497712 0.523471
57 2 0.501312 0.474166 0.506409
97 2 0.510368 0.473804 0.519279
13 2 0.51621 0.478874 0.501453
8 2 0.515429 0.487669 0.517124
114 2 0.499398 0.489373 0.512243
71 2 0.511506 0.496089 0.50309
64 2 0.506827 0.499849 0.529373
76 2 0.527355 0.493211 0.507658
52 2 0.533506 0.47771 0.508736
44 1 0.535375 0.494875 0.522313
65 1 0.454112 0.503748 0.494996
96 2 0.459741 0.511994 0.512079
78 2 0.475855 0.515009 0.505091
4 2 0.491741 0.514715 0.500967
25 2 0.473322 0.502492 0.519656
141 2 0.470863 0.521974 0.521632
2 2 0.485768 0.501177 0.508507
11 2 0.485403 0.527881 0.510989
85 2 0.486045 0.513713 0.518497
32 2 0.509796 0.511848 0.500671
88 2 0.501556 0.522787 0.511051
35 2 0.5017 0.506166 0.514359
94 2 0.518887 0.519548 0.514037
66 2 0.516549 0.503335 0.517105
125 2 0.508834 0.520154 0.527423
16 1 0.523455 0.529842 0.527657
33 2 0.532015 0.507359 0.511168
49 1 0.522914 0.511333 0.529408
50 1 0.535129 0.524913 0.515701
59 1 0.469772 0.530465 0.505202
126 2 0.496302 0.528835 0.525957
112 1 0.482008 0.540982 0.501361
30 1 0.480768 0.532578 0.529248
43 1 0.496377 0.540705 0.51156
6 2 0.511151 0.533397 0.517436
133 2 0.513144 0.527115 0.500649
123 1 0.5246 0.53648 0.507927
42 1 0.504085 0.464231 0.53466
111 1 0.51931 0.459496 0.526194
69 2 0.482494 0.484363 0.535578
14 2 0.498839 0.478816 0.544785
55 2 0.49469 0.494119 0.540376
92 2 0.503328 0.483306 0.528883
135 1 0.509653 0.491161 0.542588
45 1 0.516786 0.475829 0.535069
87 1 0.462476 0.509465 0.531503
10 2 0.495271 0.50933 0.532239
119 1 0.475808 0.500018 0.54121
61 1 0.479564 0.514142 0.535013
62 1 0.492217 0.508123 0.548626
98 1 0.523735 0.491752 0.532958
37 1 0.496527 0.52509 0.542451
113 1 0.509975 0.510435 0.542154
ITEM: TIMESTEP
4480000
ITEM: NUMBER OF ATOMS
141
ITEM: BOX BOUNDS pp pp pp
0.0000000000000000e+00 1.4356000000000000e+02
0.0000000000000000e+00 1.4356000000000000e+02
0.0000000000000000e+00 1.4356000000000000e+02
ITEM: ATOMS id type xs ys zs
21 1 0.470911 0.485292 0.465966
120 1 0.486849 0.476682 0.463123
18 1 0.51021 0.474256 0.472192
80 1 0.503773 0.484325 0.458429
46 1 0.507191 0.499763 0.455351
63 1 0.525178 0.495948 0.460192
79 1 0.527847 0.476214 0.469508
134 1 0.488631 0.501566 0.460139
100 1 0.497751 0.515204 0.462121
82 1 0.481629 0.51646 0.464025
7 2 0.501187 0.502763 0.472372
19 1 0.524415 0.515696 0.46005
86 1 0.509788 0.525991 0.45822
103 2 0.523359 0.526205 0.472904
41 1 0.51129 0.536616 0.475722
53 1 0.476287 0.468212 0.47447
140 1 0.486483 0.458241 0.484364
39 1 0.50548 0.461156 0.480946
130 1 0.499531 0.453889 0.494098
72 2 0.516374 0.463834 0.493949
121 1 0.524324 0.465539 0.480072
99 2 0.461735 0.500347 0.480954
36 1 0.463086 0.481819 0.480396
138 1 0.458714 0.478748 0.500858
127 1 0.469888 0.468899 0.490836
104 2 0.48567 0.470964 0.495737
95 2 0.493324 0.488341 0.470814
132 2 0.473024 0.483527 0.494955
102 2 0.482106 0.483204 0.482139
58 2 0.494147 0.472485 0.477131
128 2 0.49444 0.485958 0.498667
122 2 0.503024 0.471698 0.495279
93 2 0.517296 0.480772 0.484801
3 2 0.513053 0.490645 0.470655
48 2 0.50127 0.486033 0.484591
131 2 0.52631 0.492547 0.479097
13 2 0.527369 0.4903 0.493681
110 2 0.517867 0.501255 0.503641
115 1 0.540983 0.492144 0.471564
77 1 0.541732 0.493753 0.488054
139 1 0.537005 0.478288 0.484141