ITEM: TIMESTEP
6100000
ITEM: NUMBER OF ATOMS
141
ITEM: BOX BOUNDS pp pp pp
0.0000000000000000e+00 1.4356000000000000e+02
0.0000000000000000e+00 1.4356000000000000e+02
0.0000000000000000e+00 1.4356000000000000e+02
ITEM: ATOMS id type xs ys zs
38 1 0.484164 0.477398 0.461313
73 2 0.494501 0.494333 0.465473
105 1 0.477657 0.491376 0.464731
130 1 0.513805 0.472594 0.467995
29 1 0.501009 0.479267 0.459947
127 1 0.520282 0.491103 0.459048
117 1 0.531856 0.479536 0.466506
119 1 0.483779 0.507959 0.460287
133 2 0.487773 0.523271 0.468396
83 2 0.50063 0.507837 0.455697
53 1 0.50472 0.521435 0.462614
87 1 0.519188 0.51032 0.460155
86 1 0.533859 0.502397 0.466653
80 1 0.498309 0.463742 0.47301
107 1 0.480478 0.466265 0.472944
26 2 0.491344 0.466634 0.49695
139 1 0.488889 0.458192 0.483996
124 1 0.514257 0.459244 0.479263
70 1 0.502992 0.454658 0.490918
49 1 0.523113 0.459059 0.494336
112 1 0.531396 0.465624 0.479367
44 1 0.461107 0.480796 0.487305
75 1 0.464919 0.498841 0.476169
60 2 0.469054 0.498893 0.493653
138 1 0.476696 0.47267 0.489373
12 2 0.470726 0.48016 0.474156
39 1 0.490701 0.478937 0.478284
108 2 0.478836 0.489141 0.484209
94 2 0.490546 0.48314 0.495422
2 2 0.496986 0.49524 0.485488
103 2 0.486098 0.499036 0.498864
48 2 0.475939 0.486541 0.49999
7 2 0.504329 0.473555 0.485656
116 2 0.513635 0.472215 0.49824
33 2 0.507118 0.486601 0.475386
64 2 0.521025 0.47772 0.483826
106 2 0.525053 0.49169 0.475823
15 2 0.513703 0.488358 0.492976
88 2 0.529625 0.491451 0.490996
30 1 0.539465 0.480994 0.481273
113 1 0.540743 0.498656 0.480438
23 1 0.534018 0.474415 0.496892
66 2 0.541977 0.491093 0.498222
31 1 0.452545 0.500315 0.497148
46 1 0.46441 0.514505 0.486903
111 1 0.469405 0.528632 0.493914
74 1 0.471263 0.511928 0.471098
14 2 0.495845 0.511609 0.474242
132 2 0.481532 0.502319 0.478282
50 1 0.48059 0.52057 0.484123
24 2 0.496617 0.510979 0.489632
96 2 0.492119 0.52657 0.49542
8 2 0.480656 0.514193 0.498961
140 1 0.52482 0.525646 0.47186
129 2 0.508745 0.502892 0.472444
25 2 0.511344 0.517698 0.482277
131 2 0.513076 0.503644 0.487612
9 2 0.524243 0.518946 0.491025
13 2 0.524038 0.508491 0.477033
97 2 0.509657 0.514552 0.498781
99 2 0.536517 0.516791 0.481746
81 2 0.537807 0.52243 0.498408
118 2 0.538383 0.506263 0.496619
41 1 0.469925 0.529907 0.476226
1 1 0.489708 0.538218 0.471615
78 2 0.499686 0.529644 0.480302
62 1 0.482879 0.537709 0.486756
19 1 0.529083 0.534586 0.484021
57 2 0.508129 0.532938 0.495122
59 1 0.500495 0.545368 0.482944
43 1 0.510624 0.538462 0.472234
77 1 0.516302 0.545222 0.48759
98 1 0.52765 0.538621 0.499903
28 1 0.46382 0.468493 0.501146
115 1 0.479399 0.456916 0.502651
100 1 0.483865 0.4586 0.518589
135 1 0.495791 0.450347 0.511129
134 1 0.47191 0.468943 0.523131
95 2 0.498889 0.468617 0.512031
40 2 0.504948 0.46482 0.525643
67 2 0.511837 0.458039 0.50972
79 1 0.532201 0.466638 0.51088
121 1 0.459272 0.485006 0.504225
72 2 0.458935 0.499024 0.512722
10 2 0.468674 0.499401 0.527108
137 2 0.481043 0.473401 0.508476
122 2 0.487315 0.475599 0.523293
110 2 0.473787 0.485503 0.519676
17 1 0.489737 0.488379 0.512203
11 2 0.52356 0.483008 0.504772
37 1 0.516975 0.472292 0.516534
91 2 0.502407 0.497001 0.500852
58 2 0.503 0.498828 0.516879
76 2 0.504512 0.483018 0.505683
4 2 0.516874 0.488639 0.518867
109 2 0.501685 0.480941 0.523102
34 2 0.531679 0.482133 0.518198
32 2 0.532669 0.497965 0.511938
65 1 0.462421 0.51525 0.503835
141 2 0.468525 0.527897 0.513285
27 1 0.459519 0.513751 0.522547
71 2 0.487062 0.503882 0.520605
6 2 0.475248 0.500873 0.509786
69 2 0.474137 0.513129 0.518803
54 2 0.48484 0.523327 0.512671
52 2 0.495378 0.511577 0.5082
90 2 0.49332 0.517845 0.523973
125 2 0.515868 0.500088 0.506671
128 2 0.516318 0.504212 0.52511
84 2 0.509897 0.514481 0.5158
68 2 0.517851 0.528334 0.509852
61 1 0.526132 0.520854 0.524557
104 2 0.526963 0.513434 0.508074
56 2 0.501698 0.528431 0.508905
18 1 0.540539 0.512072 0.51598
101 1 0.536586 0.529091 0.513274
22 2 0.480253 0.535656 0.505163
35 2 0.495602 0.544984 0.500542
36 1 0.48276 0.539414 0.521568
42 1 0.496794 0.545701 0.517823
126 2 0.508983 0.531051 0.523308
3 2 0.511344 0.544282 0.506743
51 1 0.52294 0.539353 0.51893
21 1 0.487274 0.464681 0.534303
93 2 0.489883 0.491478 0.530411
16 1 0.475904 0.482586 0.53475
123 1 0.478437 0.498073 0.540765
120 1 0.498369 0.4756 0.539519
47 1 0.516497 0.476136 0.534407
114 2 0.505137 0.490275 0.536073
85 2 0.528617 0.493071 0.530604
82 1 0.46931 0.511333 0.53964
92 2 0.478078 0.523862 0.530311
45 1 0.496617 0.500589 0.5477
102 2 0.487195 0.511348 0.537557
63 1 0.500078 0.517895 0.544319
5 2 0.500712 0.504492 0.531895
20 2 0.511412 0.5179 0.533009
55 2 0.515646 0.503049 0.540729
136 1 0.52955 0.508456 0.534961
89 1 0.493669 0.531525 0.534394
ITEM: TIMESTEP
6105000
ITEM: NUMBER OF ATOMS
141
ITEM: BOX BOUNDS pp pp pp
0.0000000000000000e+00 1.4356000000000000e+02
0.0000000000000000e+00 1.4356000000000000e+02
0.0000000000000000e+00 1.4356000000000000e+02
ITEM: ATOMS id type xs ys zs
73 2 0.47988 0.494638 0.465425
83 2 0.497693 0.493913 0.461904
29 1 0.508905 0.475443 0.462764
127 1 0.515779 0.491374 0.461878
119 1 0.47532 0.517473 0.467014
133 2 0.491739 0.521164 0.472791
53 1 0.489558 0.50865 0.460379
43 1 0.501291 0.521879 0.458203
87 1 0.521532 0.506238 0.466667
140 1 0.511137 0.503963 0.453302
25 2 0.505076 0.509662 0.468749
86 1 0.51641 0.522774 0.464327
1 1 0.503683 0.53872 0.467323
28 1 0.466974 0.469871 0.493639
107 1 0.487349 0.466119 0.474356
138 1 0.484175 0.459765 0.49065
139 1 0.501628 0.456248 0.490357
80 1 0.510433 0.465472 0.476492
49 1 0.516907 0.455082 0.490867
112 1 0.526629 0.461518 0.478699
132 2 0.466371 0.498597 0.472557
38 1 0.472102 0.473508 0.477258
105 1 0.461001 0.484327 0.482908
44 1 0.451346 0.49809 0.501073
39 1 0.490192 0.482178 0.472784
12 2 0.483826 0.477067 0.489186
108 2 0.476878 0.491026 0.482016
94 2 0.497798 0.488004 0.487797
48 2 0.472404 0.487707 0.499677
7 2 0.499639 0.47186 0.486236
130 1 0.523298 0.474908 0.470041
124 1 0.519304 0.473714 0.486495
33 2 0.506006 0.486344 0.473495
15 2 0.514275 0.489952 0.489474
129 2 0.522604 0.489193 0.476172
11 2 0.522672 0.478942 0.500882
64 2 0.530413 0.493935 0.493174
117 1 0.534703 0.479784 0.480865
30 1 0.546299 0.491777 0.483652
23 1 0.543401 0.480468 0.495063
75 1 0.453136 0.499307 0.481098
46 1 0.456334 0.514045 0.494993
74 1 0.463877 0.513175 0.479191
6 2 0.472203 0.516115 0.497104
60 2 0.467392 0.501807 0.490623
2 2 0.490071 0.499567 0.476258
103 2 0.483862 0.500864 0.494106
14 2 0.480176 0.512123 0.481392
50 1 0.4809 0.528018 0.484481
24 2 0.494494 0.514508 0.486644
78 2 0.502013 0.530503 0.483729
91 2 0.497706 0.502814 0.49961
88 2 0.520852 0.503362 0.484037
131 2 0.504809 0.501612 0.482901
9 2 0.516036 0.529656 0.492402
13 2 0.527634 0.521454 0.479975
57 2 0.511591 0.517211 0.480687
106 2 0.534545 0.505354 0.475699
99 2 0.539771 0.507809 0.490108
98 1 0.542108 0.524993 0.491312
41 1 0.463229 0.527999 0.490069
96 2 0.493156 0.530891 0.497554
62 1 0.489327 0.537829 0.476201
59 1 0.499167 0.548499 0.481918
22 2 0.483738 0.543228 0.492758
19 1 0.530233 0.539075 0.493985
77 1 0.519685 0.534635 0.476547
35 2 0.517204 0.547506 0.486481
42 1 0.501884 0.545944 0.498388
134 1 0.47159 0.459014 0.507095
26 2 0.493314 0.470714 0.500356
115 1 0.485697 0.45699 0.510603
135 1 0.502696 0.459103 0.511517
21 1 0.492304 0.46148 0.528233
116 2 0.509075 0.46828 0.498894
100 1 0.49492 0.472913 0.517594
70 1 0.521932 0.462755 0.509664
79 1 0.532174 0.467525 0.493813
40 2 0.509482 0.462961 0.52607
121 1 0.457297 0.482289 0.499065
16 1 0.463357 0.476686 0.513541
31 1 0.460191 0.49465 0.514511
137 2 0.481607 0.472975 0.508544
122 2 0.477989 0.47136 0.525904
17 1 0.489335 0.488809 0.50302
109 2 0.488067 0.484708 0.527039
93 2 0.487877 0.502469 0.513685
110 2 0.471256 0.503013 0.507432
10 2 0.477077 0.487855 0.516006
5 2 0.49411 0.48738 0.542416
95 2 0.511426 0.475666 0.515061
58 2 0.502686 0.49717 0.513935
76 2 0.504819 0.483787 0.502202
4 2 0.518623 0.488551 0.511877
85 2 0.509328 0.490617 0.52677
37 1 0.520583 0.475613 0.532006
114 2 0.502814 0.476376 0.530924
66 2 0.545802 0.497529 0.500959
67 2 0.530091 0.474234 0.519287
34 2 0.529168 0.488561 0.527043
32 2 0.536072 0.484926 0.508595
118 2 0.530218 0.503447 0.505777
72 2 0.475356 0.501893 0.525548
65 1 0.459554 0.510978 0.519699
27 1 0.475373 0.517871 0.530175
8 2 0.477319 0.530203 0.500656
71 2 0.491173 0.514429 0.526277
69 2 0.478286 0.517796 0.513323
54 2 0.492235 0.527456 0.514006
52 2 0.489306 0.516742 0.502553
92 2 0.474126 0.531429 0.520768
97 2 0.507667 0.515992 0.497048
125 2 0.51401 0.500057 0.501796
128 2 0.522432 0.502008 0.519664
84 2 0.501837 0.513116 0.512849
104 2 0.517535 0.513671 0.511435
90 2 0.503998 0.526889 0.525548
113 1 0.542686 0.515831 0.505802
81 2 0.524552 0.514339 0.494401
18 1 0.540862 0.499905 0.518443
101 1 0.531082 0.517795 0.51885
111 1 0.4617 0.523913 0.508334
141 2 0.485305 0.541899 0.510565
36 1 0.490925 0.533135 0.532082
126 2 0.502344 0.541026 0.515403
56 2 0.507571 0.529181 0.506546
3 2 0.518035 0.541457 0.504644
51 1 0.521375 0.531732 0.518511
68 2 0.529915 0.525265 0.504582
123 1 0.466543 0.485822 0.528494
120 1 0.477334 0.49003 0.538998
47 1 0.485341 0.473039 0.540332
45 1 0.503662 0.502028 0.54461
63 1 0.510539 0.486322 0.545385
82 1 0.482031 0.507625 0.541793
102 2 0.492802 0.499057 0.530895
89 1 0.495614 0.517567 0.541159
20 2 0.518694 0.516916 0.531081
55 2 0.506468 0.508989 0.528498
136 1 0.517978 0.501069 0.538526
61 1 0.532794 0.507114 0.532093
ITEM: TIMESTEP
6110000
ITEM: NUMBER OF ATOMS
141
ITEM: BOX BOUNDS pp pp pp
0.0000000000000000e+00 1.4356000000000000e+02
0.0000000000000000e+00 1.4356000000000000e+02
0.0000000000000000e+00 1.4356000000000000e+02
ITEM: ATOMS id type xs ys zs
38 1 0.485722 0.467474 0.470874
73 2 0.484152 0.50038 0.467945
83 2 0.48916 0.482655 0.4631
108 2 0.486556 0.486156 0.480069
127 1 0.526384 0.488843 0.464685
39 1 0.500133 0.474457 0.469924
119 1 0.48063 0.513877 0.456943
53 1 0.492906 0.49757 0.454241
140 1 0.509125 0.501644 0.454817
43 1 0.497666 0.514244 0.459385
87 1 0.512947 0.521034 0.457614
1 1 0.484327 0.530029 0.466893
107 1 0.499917 0.459766 0.477782
138 1 0.473279 0.461552 0.487918
139 1 0.490645 0.455586 0.493338
26 2 0.500475 0.4677 0.500389
29 1 0.516291 0.477856 0.471772
80 1 0.50839 0.456067 0.491587
112 1 0.521243 0.465856 0.483737
28 1 0.472484 0.476342 0.479616
105 1 0.472194 0.487447 0.467043
75 1 0.459027 0.488382 0.485878
12 2 0.490137 0.471491 0.486706
48 2 0.4758 0.489114 0.491934
131 2 0.502769 0.489408 0.485083
137 2 0.481881 0.471479 0.501078
7 2 0.506637 0.47375 0.484624
124 1 0.52214 0.48437 0.487301
33 2 0.507502 0.486936 0.461427
129 2 0.530408 0.497603 0.481238
64 2 0.517276 0.499781 0.491757
76 2 0.508529 0.485583 0.49953
11 2 0.533502 0.473369 0.495522
130 1 0.532834 0.476806 0.477228
117 1 0.538928 0.487817 0.492675
60 2 0.460341 0.50708 0.491859
46 1 0.464157 0.521839 0.484685
74 1 0.466877 0.503468 0.461015
24 2 0.470693 0.520979 0.500311
6 2 0.475657 0.506709 0.493468
50 1 0.47432 0.516653 0.474087
2 2 0.489971 0.501341 0.484282
132 2 0.470216 0.500484 0.479101
25 2 0.499112 0.499219 0.471326
133 2 0.490736 0.515088 0.47638
14 2 0.480295 0.523582 0.487184
52 2 0.49277 0.514972 0.497206
94 2 0.501619 0.501238 0.497191
15 2 0.514953 0.49594 0.475828
88 2 0.509849 0.511365 0.471363
97 2 0.50315 0.51239 0.485766
125 2 0.521496 0.513701 0.483268
13 2 0.52256 0.52382 0.470909
106 2 0.524887 0.506802 0.467614
30 1 0.538285 0.513241 0.479809
99 2 0.533185 0.504797 0.494838
98 1 0.537716 0.529616 0.480075
113 1 0.541215 0.517857 0.504327
41 1 0.469244 0.539339 0.494621
86 1 0.501176 0.541803 0.479619
78 2 0.494996 0.527342 0.485571
62 1 0.473461 0.535039 0.47704
59 1 0.496179 0.546605 0.500355
22 2 0.484949 0.542135 0.487089
57 2 0.501735 0.527142 0.470934
9 2 0.512561 0.529227 0.485806
77 1 0.519771 0.540504 0.474172
42 1 0.509972 0.544378 0.49494
19 1 0.526863 0.539548 0.489977
134 1 0.468545 0.460471 0.503969
115 1 0.487205 0.457426 0.509113
135 1 0.493582 0.451724 0.522123
79 1 0.517571 0.454613 0.504847
49 1 0.500504 0.449051 0.506612
70 1 0.509763 0.452719 0.521174
95 2 0.500865 0.466558 0.516863
121 1 0.460519 0.494375 0.502203
16 1 0.464758 0.476932 0.498577
31 1 0.46363 0.483836 0.521856
122 2 0.473838 0.470282 0.515935
17 1 0.492022 0.485256 0.499396
100 1 0.491057 0.477872 0.514421
109 2 0.487178 0.495379 0.519009
10 2 0.476407 0.485841 0.508442
114 2 0.503506 0.482165 0.527591
91 2 0.502573 0.509317 0.511255
102 2 0.501361 0.49934 0.526711
116 2 0.516855 0.470832 0.498459
58 2 0.501565 0.490103 0.512468
85 2 0.512668 0.478053 0.514194
67 2 0.528802 0.469041 0.511309
32 2 0.525313 0.485629 0.503844
4 2 0.514938 0.497017 0.508925
128 2 0.516301 0.491289 0.525132
118 2 0.529481 0.496024 0.515924
66 2 0.541786 0.504412 0.510801
34 2 0.528957 0.480219 0.523389
23 1 0.54246 0.484086 0.511287
18 1 0.541665 0.494788 0.527639
111 1 0.45445 0.508543 0.507743
44 1 0.458266 0.503907 0.523437
65 1 0.456029 0.523459 0.508491
103 2 0.486634 0.499118 0.502597
110 2 0.471768 0.502829 0.511225
72 2 0.471247 0.517043 0.524141
93 2 0.487998 0.511213 0.524926
69 2 0.483679 0.514404 0.51058
54 2 0.495469 0.525717 0.516961
96 2 0.485445 0.531194 0.501915
84 2 0.515637 0.5075 0.523442
104 2 0.526044 0.512969 0.508949
90 2 0.512356 0.52298 0.514462
56 2 0.514584 0.514705 0.499098
35 2 0.502189 0.529629 0.500955
68 2 0.532313 0.528236 0.513487
20 2 0.52327 0.522181 0.527316
71 2 0.50377 0.519178 0.528211
81 2 0.528562 0.523148 0.494294
101 1 0.537413 0.510516 0.525232
8 2 0.473126 0.530938 0.513021
92 2 0.482349 0.529891 0.525662
141 2 0.48769 0.541364 0.514464
3 2 0.518681 0.534874 0.503824
126 2 0.504612 0.539474 0.513234
36 1 0.502446 0.536375 0.529603
21 1 0.486794 0.468082 0.52781
40 2 0.503811 0.465109 0.532095
37 1 0.519354 0.465248 0.523088
123 1 0.479706 0.482321 0.529124
120 1 0.473552 0.49801 0.528284
47 1 0.492244 0.478319 0.540939
5 2 0.48999 0.495152 0.535388
63 1 0.50639 0.491385 0.54126
136 1 0.517962 0.478484 0.536686
61 1 0.526888 0.493714 0.535161
27 1 0.492233 0.525237 0.540021
82 1 0.480145 0.514169 0.540322
45 1 0.498595 0.508701 0.543459
55 2 0.517527 0.508989 0.539768
89 1 0.510601 0.529435 0.541657
51 1 0.519052 0.537135 0.525089
ITEM: TIMESTEP
6115000
ITEM: NUMBER OF ATOMS
141
ITEM: BOX BOUNDS pp pp pp
0.0000000000000000e+00 1.4356000000000000e+02
0.0000000000000000e+00 1.4356000000000000e+02
0.0000000000000000e+00 1.4356000000000000e+02
ITEM: ATOMS id type xs ys zs
83 2 0.492066 0.482025 0.46391
73 2 0.481735 0.493522 0.469822
108 2 0.494774 0.49973 0.474447
53 1 0.50718 0.490966 0.4609
38 1 0.480579 0.476303 0.474263
33 2 0.506817 0.472852 0.466026
140 1 0.522056 0.483541 0.462828
119 1 0.476516 0.509579 0.45787
43 1 0.490167 0.499084 0.458758
1 1 0.490943 0.518123 0.456838
77 1 0.503841 0.527197 0.462759
87 1 0.52059 0.501276 0.461739
57 2 0.504607 0.508451 0.461613
138 1 0.476323 0.459511 0.480807
139 1 0.467242 0.460711 0.498228
107 1 0.493815 0.456679 0.487462
26 2 0.486056 0.471176 0.490289
49 1 0.498145 0.445287 0.498481
80 1 0.510658 0.460458 0.4784
116 2 0.509807 0.457115 0.493085
105 1 0.46646 0.487088 0.476002
74 1 0.466856 0.503567 0.469095
75 1 0.454278 0.48361 0.492693
28 1 0.464189 0.471552 0.48585
39 1 0.496168 0.468751 0.477581
6 2 0.466167 0.49376 0.499516
12 2 0.48869 0.486221 0.487043
48 2 0.476978 0.497337 0.484585
137 2 0.475121 0.481117 0.493931
112 1 0.52161 0.469124 0.489866
29 1 0.525355 0.468973 0.47167
15 2 0.518018 0.485255 0.48008
131 2 0.502069 0.484894 0.476804
7 2 0.505501 0.473358 0.490907
94 2 0.504805 0.494208 0.49126
64 2 0.517479 0.48524 0.494647
127 1 0.536684 0.493197 0.470507
124 1 0.534313 0.483601 0.485572
11 2 0.543181 0.485731 0.498823
60 2 0.458263 0.499534 0.48496
50 1 0.464828 0.517855 0.480505
121 1 0.452773 0.500403 0.500333
111 1 0.457306 0.517338 0.497275
2 2 0.48959 0.507226 0.486569
132 2 0.483513 0.512001 0.472529
133 2 0.498977 0.515503 0.474122
14 2 0.472599 0.509422 0.49316
52 2 0.495616 0.525134 0.489696
22 2 0.481188 0.522819 0.484096
96 2 0.48357 0.533678 0.500048
25 2 0.512197 0.50309 0.476124
129 2 0.524376 0.499107 0.486177
106 2 0.517527 0.51854 0.47374
88 2 0.506927 0.532112 0.477703
97 2 0.504785 0.510817 0.488319
125 2 0.517226 0.520311 0.490813
9 2 0.509608 0.533818 0.495024
13 2 0.522391 0.533141 0.47892
117 1 0.542466 0.499351 0.484882
130 1 0.532714 0.511327 0.475783
30 1 0.547254 0.514605 0.489875
98 1 0.534898 0.526762 0.489666
46 1 0.468794 0.528141 0.494441
62 1 0.472373 0.525661 0.465978
78 2 0.49623 0.541713 0.489919
41 1 0.480912 0.538985 0.484009
86 1 0.490688 0.530525 0.472612
81 2 0.525148 0.53764 0.496822
42 1 0.512544 0.550208 0.500076
19 1 0.512517 0.54743 0.483794
134 1 0.46308 0.475975 0.508396
115 1 0.473227 0.460384 0.515485
135 1 0.490216 0.454529 0.516418
100 1 0.484011 0.471208 0.508048
95 2 0.48396 0.457695 0.501068
79 1 0.506607 0.45214 0.510698
67 2 0.517135 0.465269 0.504805
16 1 0.457907 0.493058 0.513723
122 2 0.473576 0.478288 0.521445
31 1 0.471095 0.496366 0.523107
103 2 0.486489 0.498326 0.499377
17 1 0.495081 0.484282 0.501183
109 2 0.489079 0.496857 0.515938
10 2 0.478539 0.486978 0.509481
120 1 0.486141 0.487926 0.531007
5 2 0.494145 0.480982 0.51761
102 2 0.499361 0.496999 0.527384
37 1 0.523725 0.472271 0.520601
58 2 0.504429 0.493987 0.511111
76 2 0.528967 0.477024 0.503697
114 2 0.49993 0.465002 0.502218
85 2 0.512535 0.478851 0.509917
128 2 0.509992 0.483483 0.524497
118 2 0.519972 0.493362 0.515027
32 2 0.530334 0.495152 0.501454
34 2 0.536 0.49136 0.518304
44 1 0.458274 0.50997 0.512535
8 2 0.46975 0.523487 0.523524
24 2 0.471549 0.519802 0.508101
110 2 0.475303 0.504241 0.508392
72 2 0.481765 0.510956 0.520449
93 2 0.497368 0.512104 0.516639
69 2 0.485908 0.516159 0.502325
141 2 0.485169 0.528143 0.514445
92 2 0.490037 0.524301 0.52864
4 2 0.516106 0.503535 0.499494
35 2 0.499685 0.528008 0.508524
56 2 0.51189 0.516416 0.507333
54 2 0.506781 0.524046 0.52226
91 2 0.499031 0.50759 0.501624
84 2 0.512145 0.505504 0.521175
90 2 0.521667 0.524171 0.521967
99 2 0.53084 0.51062 0.495292
23 1 0.544241 0.50615 0.521029
66 2 0.544121 0.502043 0.502568
104 2 0.527192 0.510066 0.512585
113 1 0.543586 0.522078 0.50822
18 1 0.536637 0.519556 0.527804
68 2 0.527508 0.52384 0.503972
59 1 0.497013 0.544748 0.505781
65 1 0.468071 0.535534 0.511943
3 2 0.513089 0.535964 0.511992
126 2 0.498082 0.538653 0.521566
51 1 0.514393 0.535847 0.530349
101 1 0.532598 0.535218 0.514274
21 1 0.485519 0.468859 0.526725
40 2 0.503406 0.467216 0.518311
70 1 0.514386 0.456745 0.524708
123 1 0.498214 0.477236 0.534224
47 1 0.49749 0.496968 0.543806
136 1 0.510706 0.485048 0.542774
63 1 0.514045 0.469672 0.533804
55 2 0.516385 0.50212 0.538243
61 1 0.524199 0.488406 0.531137
82 1 0.483209 0.504593 0.53813
20 2 0.527039 0.504598 0.527033
36 1 0.501025 0.527364 0.541011
71 2 0.501285 0.51254 0.530967
45 1 0.488714 0.517916 0.544903
27 1 0.5055 0.510792 0.545772
89 1 0.519376 0.517911 0.537804
ITEM: TIMESTEP
6120000
ITEM: NUMBER OF ATOMS
141
ITEM: BOX BOUNDS pp pp pp
0.0000000000000000e+00 1.4356000000000000e+02
0.0000000000000000e+00 1.4356000000000000e+02
0.0000000000000000e+00 1.4356000000000000e+02
ITEM: ATOMS id type xs ys zs
39 1 0.490719 0.46947 0.472262
105 1 0.464017 0.492578 0.467778
83 2 0.498982 0.484202 0.464265
73 2 0.482494 0.484075 0.46787
74 1 0.488204 0.494228 0.457494
53 1 0.517176 0.479717 0.456168
108 2 0.507254 0.500216 0.469761
140 1 0.511027 0.494845 0.453044
87 1 0.52569 0.493499 0.461143
50 1 0.465577 0.51651 0.464425
119 1 0.499436 0.505127 0.456237
1 1 0.484705 0.519166 0.457143
132 2 0.479367 0.506225 0.465368
57 2 0.517117 0.50956 0.462526
43 1 0.506665 0.521387 0.460388
106 2 0.519595 0.523461 0.473628
77 1 0.496219 0.529609 0.468579
28 1 0.470076 0.466902 0.499259
138 1 0.479025 0.467455 0.484215
107 1 0.486507 0.457485 0.497117
80 1 0.501423 0.456764 0.47657
116 2 0.502617 0.457255 0.497857
33 2 0.508761 0.469482 0.466244
112 1 0.519289 0.45761 0.492142
29 1 0.525811 0.468372 0.46994
124 1 0.534509 0.467174 0.491174
75 1 0.45832 0.495119 0.48591
38 1 0.468052 0.478329 0.481632
26 2 0.497997 0.469845 0.489072
6 2 0.47565 0.487326 0.497351
48 2 0.475933 0.494815 0.481341
12 2 0.486361 0.482168 0.483178
131 2 0.502667 0.484412 0.481827
17 1 0.489336 0.497324 0.490537
2 2 0.491798 0.496254 0.473839
15 2 0.515436 0.485049 0.472568
7 2 0.51311 0.470056 0.481879
94 2 0.501785 0.498159 0.504002
129 2 0.524054 0.495611 0.481693
64 2 0.518981 0.482831 0.49092
25 2 0.509215 0.497254 0.49037
85 2 0.501298 0.483631 0.498247
127 1 0.533368 0.480675 0.48174
11 2 0.537643 0.493952 0.490287
117 1 0.538572 0.495512 0.473111
60 2 0.466598 0.508489 0.477695
121 1 0.454923 0.506232 0.497544
96 2 0.462118 0.522707 0.503242
14 2 0.469677 0.521343 0.488817
103 2 0.481987 0.510621 0.48197
22 2 0.487425 0.524161 0.486163
91 2 0.500287 0.511872 0.491037
133 2 0.49607 0.513891 0.472379
41 1 0.478192 0.526287 0.471447
69 2 0.478878 0.528107 0.501199
52 2 0.496429 0.523094 0.500362
97 2 0.512614 0.510968 0.481427
125 2 0.518969 0.526351 0.489811
99 2 0.528272 0.510598 0.490674
88 2 0.504854 0.525391 0.480772
4 2 0.512709 0.510372 0.499369
130 1 0.528872 0.508808 0.472719
30 1 0.545454 0.513056 0.491232
98 1 0.534122 0.526124 0.483739
68 2 0.53049 0.523893 0.499228
66 2 0.541044 0.501393 0.504451
62 1 0.489519 0.538905 0.48015
65 1 0.472194 0.536792 0.487503
78 2 0.487139 0.541555 0.495905
86 1 0.509357 0.540067 0.472865
13 2 0.522797 0.539407 0.479075
19 1 0.506234 0.539787 0.490667
49 1 0.495324 0.45234 0.514719
95 2 0.480341 0.464095 0.513663
135 1 0.503877 0.458798 0.52947
114 2 0.496988 0.468337 0.509152
67 2 0.512703 0.471821 0.500315
79 1 0.512475 0.45761 0.514145
70 1 0.527463 0.464926 0.506778
134 1 0.457036 0.477926 0.494563
16 1 0.462711 0.49057 0.503762
139 1 0.463379 0.472506 0.513658
31 1 0.469515 0.501537 0.512436
137 2 0.486182 0.47429 0.499257
100 1 0.490125 0.470261 0.525937
122 2 0.465135 0.487232 0.521
10 2 0.478611 0.48097 0.512102
5 2 0.484101 0.489664 0.525253
58 2 0.497614 0.483197 0.512851
109 2 0.485708 0.495297 0.505955
40 2 0.507171 0.472112 0.522142
37 1 0.522772 0.476028 0.518967
118 2 0.514751 0.486242 0.508465
55 2 0.514214 0.489424 0.524772
76 2 0.531401 0.481618 0.502103
34 2 0.530043 0.494243 0.515185
46 1 0.471682 0.532545 0.521363
111 1 0.454028 0.504081 0.514972
44 1 0.460704 0.518153 0.527055
24 2 0.473346 0.518072 0.515484
110 2 0.473587 0.504979 0.495036
72 2 0.485174 0.505882 0.519193
35 2 0.489135 0.523689 0.516171
93 2 0.486066 0.511695 0.503122
141 2 0.488085 0.533383 0.52929
102 2 0.499215 0.496905 0.520808
92 2 0.4956 0.518236 0.528975
32 2 0.524085 0.49787 0.499429
56 2 0.513122 0.525823 0.507737
54 2 0.502261 0.513002 0.512883
84 2 0.515757 0.503063 0.514104
90 2 0.516756 0.516984 0.522171
20 2 0.524516 0.504707 0.527626
104 2 0.527917 0.51331 0.511541
23 1 0.544421 0.503969 0.521486
113 1 0.544058 0.515897 0.507205
18 1 0.534186 0.519345 0.531387
59 1 0.468967 0.539904 0.505649
42 1 0.483331 0.53973 0.511423
81 2 0.523014 0.537788 0.500007
126 2 0.505392 0.530388 0.52361
9 2 0.500098 0.539268 0.511036
3 2 0.516907 0.541174 0.515488
101 1 0.529139 0.529791 0.515997
115 1 0.474619 0.475203 0.528848
63 1 0.519015 0.465505 0.531673
21 1 0.500353 0.470881 0.540235
120 1 0.469518 0.500765 0.529868
123 1 0.486768 0.48328 0.540854
128 2 0.500554 0.485068 0.532338
47 1 0.499781 0.492923 0.546375
136 1 0.516532 0.480034 0.539432
27 1 0.514833 0.497474 0.540965
61 1 0.530549 0.488205 0.530344
8 2 0.478331 0.51711 0.531436
82 1 0.489749 0.501744 0.536358
71 2 0.506814 0.506495 0.530337
45 1 0.499298 0.513011 0.545077
89 1 0.518172 0.518883 0.53905
36 1 0.503088 0.528118 0.540058
51 1 0.522112 0.531761 0.530909
ITEM: TIMESTEP
6125000
ITEM: NUMBER OF ATOMS
141
ITEM: BOX BOUNDS pp pp pp
0.0000000000000000e+00 1.4356000000000000e+02
0.0000000000000000e+00 1.4356000000000000e+02
0.0000000000000000e+00 1.4356000000000000e+02
ITEM: ATOMS id type xs ys zs
39 1 0.493914 0.475725 0.461844
105 1 0.473043 0.518454 0.4585
38 1 0.461797 0.505405 0.4659
73 2 0.477527 0.4785 0.465919
140 1 0.488492 0.488063 0.453552
74 1 0.505471 0.488117 0.450766
53 1 0.51032 0.478727 0.463597
87 1 0.526024 0.485594 0.461018
2 2 0.499838 0.492226 0.465211
119 1 0.49617 0.503477 0.453289
1 1 0.478285 0.500736 0.458596
43 1 0.487475 0.514293 0.462267
88 2 0.506662 0.518494 0.461208
57 2 0.512895 0.503144 0.45745
130 1 0.528768 0.500472 0.469896
86 1 0.498212 0.532043 0.465789
80 1 0.488461 0.467222 0.477683
116 2 0.496549 0.453967 0.491334
33 2 0.505644 0.465738 0.473891
7 2 0.518704 0.4618 0.487771
29 1 0.522636 0.469519 0.47032
134 1 0.460146 0.481552 0.49263
48 2 0.470527 0.494416 0.48122
138 1 0.471071 0.470035 0.484741
107 1 0.484246 0.466406 0.493059
6 2 0.477417 0.485967 0.4961
12 2 0.481568 0.482768 0.482597
137 2 0.494368 0.484116 0.493797
132 2 0.485093 0.491603 0.471126
108 2 0.514617 0.49173 0.472739
83 2 0.500275 0.479862 0.479303
26 2 0.503206 0.470197 0.492061
131 2 0.502913 0.496145 0.484097
15 2 0.514878 0.479502 0.484094
64 2 0.525958 0.484157 0.494343
25 2 0.519271 0.496386 0.486467
124 1 0.532636 0.469518 0.489263
11 2 0.529675 0.484488 0.477865
66 2 0.537445 0.4944 0.502402
75 1 0.461778 0.507535 0.482209
50 1 0.467497 0.523397 0.473372
96 2 0.459823 0.526033 0.489198
17 1 0.485111 0.4987 0.488145
14 2 0.476055 0.514657 0.4888
41 1 0.481553 0.531248 0.466985
103 2 0.477039 0.507541 0.474186
22 2 0.488408 0.521638 0.479422
133 2 0.494646 0.505395 0.47295
52 2 0.490852 0.524286 0.495322
106 2 0.524518 0.518274 0.469691
97 2 0.511756 0.507353 0.473103
32 2 0.509413 0.511528 0.490823
91 2 0.493831 0.510887 0.489245
99 2 0.526328 0.512051 0.484697
4 2 0.507686 0.527834 0.495224
125 2 0.50872 0.52137 0.478504
13 2 0.522546 0.529034 0.486588
104 2 0.524387 0.518799 0.499839
98 1 0.536971 0.526681 0.482032
129 2 0.524545 0.500789 0.501368
127 1 0.535845 0.498141 0.486114
117 1 0.540384 0.516151 0.494724
65 1 0.477396 0.532898 0.484661
77 1 0.494279 0.53586 0.480461
62 1 0.511851 0.536284 0.474366
19 1 0.506063 0.542586 0.490977
81 2 0.517826 0.541925 0.502489
49 1 0.491087 0.459209 0.506612
95 2 0.487694 0.468643 0.520544
100 1 0.502752 0.458422 0.521079
28 1 0.470245 0.47079 0.502546
112 1 0.508405 0.457668 0.500638
135 1 0.518038 0.459776 0.514902
70 1 0.530129 0.460323 0.502331
16 1 0.454051 0.496367 0.49998
110 2 0.471716 0.50203 0.497037
139 1 0.471408 0.474824 0.522442
122 2 0.469987 0.49196 0.526255
31 1 0.469945 0.487731 0.509487
114 2 0.500686 0.470528 0.509761
10 2 0.486152 0.478726 0.507999
5 2 0.485149 0.48676 0.523015
58 2 0.500252 0.478906 0.525133
109 2 0.486239 0.494596 0.506759
118 2 0.499318 0.48809 0.511391
128 2 0.497523 0.494972 0.531639
85 2 0.509699 0.485482 0.499316
79 1 0.518145 0.470999 0.502661
67 2 0.526431 0.485016 0.50999
40 2 0.515933 0.475112 0.518956
55 2 0.513452 0.488902 0.526536
37 1 0.533535 0.470978 0.517662
84 2 0.51232 0.49495 0.511399
34 2 0.541352 0.508762 0.510285
76 2 0.53994 0.477256 0.503889
23 1 0.541053 0.489676 0.517465
60 2 0.459131 0.510602 0.498036
121 1 0.455299 0.500615 0.514845
111 1 0.466147 0.509428 0.529102
44 1 0.463996 0.518627 0.515218
93 2 0.484795 0.510897 0.504935
94 2 0.500752 0.498906 0.499436
69 2 0.473204 0.52396 0.501502
102 2 0.49795 0.505207 0.517075
24 2 0.470786 0.504935 0.513128
72 2 0.481564 0.504407 0.524085
35 2 0.487764 0.525696 0.511786
92 2 0.49289 0.511391 0.530777
8 2 0.478645 0.521534 0.524983
54 2 0.500893 0.516339 0.504744
90 2 0.515165 0.511943 0.511029
126 2 0.501559 0.523375 0.520624
71 2 0.509974 0.505931 0.528314
20 2 0.524946 0.500813 0.520895
113 1 0.540171 0.502436 0.528248
30 1 0.530194 0.517155 0.518543
101 1 0.529351 0.532962 0.521957
59 1 0.468866 0.540012 0.497067
78 2 0.489993 0.540796 0.500244
46 1 0.472892 0.536038 0.515624
42 1 0.512873 0.54 0.522022
141 2 0.490878 0.537204 0.523989
56 2 0.517393 0.528322 0.511389
3 2 0.515854 0.522779 0.52641
9 2 0.501329 0.535727 0.511203
68 2 0.532808 0.531539 0.503695
21 1 0.499697 0.467882 0.538376
63 1 0.516009 0.464769 0.531367
115 1 0.484556 0.476233 0.53631
123 1 0.497066 0.4841 0.543428
120 1 0.482775 0.492768 0.538996
136 1 0.51509 0.479844 0.5416
27 1 0.507553 0.497713 0.545047
61 1 0.529815 0.484479 0.529088
89 1 0.523806 0.495043 0.538753
47 1 0.493066 0.507396 0.548038
82 1 0.478754 0.512031 0.539962
36 1 0.489615 0.526993 0.540528
18 1 0.522838 0.511176 0.5371
45 1 0.506011 0.518703 0.539896
51 1 0.503324 0.533405 0.534707
ITEM: TIMESTEP
6130000
ITEM: NUMBER OF ATOMS
141
ITEM: BOX BOUNDS pp pp pp
0.0000000000000000e+00 1.4356000000000000e+02
0.0000000000000000e+00 1.4356000000000000e+02
0.0000000000000000e+00 1.4356000000000000e+02
ITEM: ATOMS id type xs ys zs
53 1 0.514215 0.475723 0.46109
140 1 0.493972 0.473767 0.460093
1 1 0.48731 0.489487 0.460014
119 1 0.484271 0.505441 0.454219
73 2 0.479703 0.476628 0.470859
87 1 0.52384 0.48678 0.470127
2 2 0.504145 0.488342 0.459263
38 1 0.458887 0.505858 0.475719
43 1 0.468245 0.514588 0.462728
88 2 0.491198 0.520716 0.464015
133 2 0.498372 0.503299 0.466428
74 1 0.500221 0.506587 0.44913
106 2 0.506886 0.516588 0.46953
57 2 0.514456 0.500541 0.463582
105 1 0.485609 0.534974 0.471083
86 1 0.505633 0.534601 0.469258
80 1 0.475553 0.464803 0.485663
107 1 0.481952 0.453207 0.495763
83 2 0.490245 0.471246 0.480745
116 2 0.498975 0.457876 0.488536
39 1 0.499455 0.462312 0.470222
26 2 0.504059 0.471757 0.494107
33 2 0.514246 0.465286 0.479458
7 2 0.517442 0.460968 0.495136
138 1 0.464482 0.475349 0.477961
134 1 0.460708 0.490005 0.485139
6 2 0.467024 0.477873 0.495019
110 2 0.467901 0.496527 0.49832
48 2 0.471977 0.492187 0.471594
12 2 0.47828 0.483323 0.484992
137 2 0.494142 0.484152 0.492809
132 2 0.493238 0.489868 0.475597
17 1 0.484312 0.497741 0.487484
10 2 0.488208 0.468765 0.498026
108 2 0.526944 0.494509 0.484878
131 2 0.510331 0.49432 0.479972
15 2 0.506366 0.479707 0.475328
64 2 0.521542 0.4789 0.485513
85 2 0.511879 0.487215 0.494095
130 1 0.538895 0.49489 0.472397