ITEM: TIMESTEP
3350000
ITEM: NUMBER OF ATOMS
141
ITEM: BOX BOUNDS pp pp pp
0.0000000000000000e+00 1.4356000000000000e+02
0.0000000000000000e+00 1.4356000000000000e+02
0.0000000000000000e+00 1.4356000000000000e+02
ITEM: ATOMS id type xs ys zs
56 2 0.475355 0.487247 0.463232
114 2 0.48971 0.482108 0.465095
125 2 0.498664 0.490941 0.456161
127 1 0.503268 0.474151 0.455779
132 2 0.517518 0.486514 0.459839
74 1 0.523029 0.473939 0.469543
44 1 0.484704 0.500417 0.458902
99 2 0.487902 0.515919 0.464235
85 2 0.498943 0.505922 0.470076
87 1 0.503333 0.518065 0.459948
111 1 0.511323 0.502534 0.457078
60 2 0.519365 0.514629 0.467666
21 1 0.527614 0.500216 0.463502
65 1 0.494259 0.532014 0.470229
75 1 0.465433 0.470076 0.49292
130 1 0.490386 0.465705 0.471208
119 1 0.483733 0.464833 0.487732
112 1 0.495225 0.455014 0.498179
19 1 0.501777 0.46 0.483709
53 1 0.51839 0.463671 0.484062
139 1 0.510572 0.459711 0.499027
135 1 0.459267 0.479547 0.476413
122 2 0.458046 0.488227 0.491758
100 1 0.462751 0.496464 0.474836
128 2 0.498212 0.471953 0.495384
29 1 0.475582 0.471874 0.475056
5 2 0.473085 0.483236 0.485653
3 2 0.486384 0.493806 0.492643
67 2 0.489412 0.480084 0.483118
6 2 0.479442 0.476855 0.4985
57 2 0.482826 0.495966 0.475224
93 2 0.499735 0.499238 0.49998
107 1 0.505686 0.473442 0.475487
116 2 0.505013 0.489147 0.471533
118 2 0.503303 0.487769 0.48831
91 2 0.514669 0.477135 0.494926
8 2 0.518112 0.486227 0.481437
73 2 0.526526 0.488379 0.497174
83 2 0.514978 0.499843 0.491336
28 1 0.529147 0.474236 0.485228
103 2 0.530083 0.499592 0.485807
36 1 0.534623 0.488174 0.474265
63 1 0.543183 0.48705 0.48845
121 1 0.463089 0.514233 0.480952
33 2 0.459414 0.50344 0.497882
10 2 0.461596 0.521025 0.498822
54 2 0.474626 0.508577 0.470784
37 1 0.476005 0.525307 0.472312
84 2 0.472467 0.502703 0.488795
68 2 0.475708 0.519801 0.490141
126 2 0.487844 0.513794 0.47957
9 2 0.486853 0.509192 0.495483
90 2 0.493284 0.524216 0.491285
25 2 0.500406 0.50373 0.485587
110 2 0.515409 0.501465 0.474477
55 2 0.506154 0.517965 0.477475
97 2 0.505872 0.516193 0.493147
106 2 0.520958 0.514396 0.485836
102 2 0.528434 0.509383 0.499393
27 1 0.534522 0.512363 0.475746
70 1 0.54469 0.508908 0.490322
23 1 0.535752 0.523027 0.490302
98 1 0.464395 0.533992 0.487077
86 1 0.483158 0.534844 0.483945
32 2 0.498295 0.540177 0.485245
133 2 0.489773 0.540848 0.499919
138 1 0.509949 0.532492 0.471502
96 2 0.511817 0.530117 0.488515
77 1 0.527152 0.531279 0.477715
46 1 0.516036 0.546116 0.482938
1 1 0.523087 0.538176 0.497316
31 1 0.471771 0.469149 0.518705
51 1 0.475768 0.460583 0.503407
40 2 0.488374 0.468282 0.525921
22 2 0.490189 0.469092 0.510457
80 1 0.502326 0.455982 0.516024
101 1 0.519699 0.462982 0.518353
109 2 0.504535 0.46739 0.527102
113 1 0.529773 0.465374 0.500454
16 1 0.46296 0.485663 0.521523
42 1 0.45268 0.49318 0.510998
52 2 0.461393 0.479432 0.507137
30 1 0.456154 0.498842 0.527277
66 2 0.470824 0.491458 0.501422
137 2 0.471602 0.499621 0.517796
81 2 0.495692 0.48369 0.505707
13 2 0.479919 0.484201 0.514663
123 1 0.487883 0.496451 0.526784
71 2 0.496704 0.4816 0.522353
14 2 0.485339 0.498529 0.508964
35 2 0.501368 0.498199 0.517966
141 2 0.507854 0.473676 0.511133
131 2 0.523978 0.477729 0.511342
92 2 0.51216 0.489501 0.506695
108 2 0.526472 0.495741 0.511985
69 2 0.515735 0.486252 0.524192
120 1 0.528191 0.475837 0.527498
24 2 0.529363 0.492485 0.529386
18 1 0.538642 0.470927 0.515058
50 1 0.541556 0.476451 0.500135
59 1 0.545034 0.485112 0.515735
72 2 0.540486 0.498061 0.502462
117 1 0.458648 0.510707 0.515023
79 1 0.469036 0.524369 0.512592
129 2 0.468565 0.514318 0.527524
2 2 0.473504 0.510098 0.505313
48 2 0.485217 0.524177 0.505798
4 2 0.484551 0.512597 0.519239
26 2 0.496744 0.525819 0.519944
64 2 0.496051 0.511583 0.510377
104 2 0.479282 0.52635 0.527602
58 2 0.497975 0.510683 0.527814
94 2 0.520615 0.522574 0.501165
76 2 0.516139 0.502265 0.526201
115 1 0.513668 0.507111 0.506292
34 2 0.509593 0.516809 0.518189
95 2 0.524522 0.52465 0.524577
88 2 0.504062 0.526131 0.505391
11 2 0.528054 0.51161 0.51551
134 1 0.540657 0.500353 0.520346
20 2 0.533016 0.529354 0.510705
62 1 0.542613 0.514022 0.508301
61 1 0.47384 0.535324 0.500454
140 1 0.483947 0.537555 0.516292
136 1 0.507985 0.541178 0.500441
7 2 0.509629 0.534754 0.528997
82 1 0.500037 0.542816 0.515225
41 1 0.515188 0.534916 0.512668
105 1 0.47117 0.497296 0.534106
89 1 0.480767 0.482506 0.53099
39 1 0.487792 0.492613 0.541564
49 1 0.496807 0.476445 0.538444
78 2 0.503124 0.493599 0.532848
38 1 0.512839 0.478919 0.53782
15 2 0.517939 0.497921 0.540378
12 2 0.483598 0.511491 0.539042
45 1 0.496708 0.523618 0.53867
124 1 0.501185 0.507349 0.544589
17 1 0.512729 0.516942 0.534488
43 1 0.529177 0.509738 0.532557
47 1 0.494818 0.540783 0.531255
ITEM: TIMESTEP
3355000
ITEM: NUMBER OF ATOMS
141
ITEM: BOX BOUNDS pp pp pp
0.0000000000000000e+00 1.4356000000000000e+02
0.0000000000000000e+00 1.4356000000000000e+02
0.0000000000000000e+00 1.4356000000000000e+02
ITEM: ATOMS id type xs ys zs
130 1 0.49486 0.466603 0.469277
56 2 0.473927 0.488927 0.46928
114 2 0.489793 0.482659 0.464684
44 1 0.485419 0.499334 0.457964
125 2 0.501927 0.494611 0.457479
127 1 0.505392 0.478341 0.460502
132 2 0.521009 0.491006 0.462705
36 1 0.535034 0.486412 0.470537
99 2 0.485828 0.516741 0.462842
85 2 0.498217 0.507268 0.46677
87 1 0.503553 0.521503 0.460093
111 1 0.514143 0.5077 0.45902
60 2 0.520244 0.521092 0.46791
21 1 0.52917 0.505432 0.464617
138 1 0.509448 0.532269 0.471461
75 1 0.467087 0.467853 0.488111
119 1 0.482898 0.462047 0.490575
128 2 0.499534 0.468877 0.496724
19 1 0.500481 0.458302 0.4849
53 1 0.518302 0.461779 0.483486
139 1 0.512247 0.455379 0.497738
113 1 0.527652 0.46155 0.500213
135 1 0.460627 0.479047 0.478189
122 2 0.45992 0.484516 0.495295
100 1 0.459432 0.494879 0.482697
29 1 0.476913 0.472403 0.474699
5 2 0.473616 0.48584 0.486007
3 2 0.486976 0.492124 0.492251
67 2 0.490418 0.477593 0.484714
6 2 0.479447 0.478816 0.498933
57 2 0.485938 0.496506 0.475869
74 1 0.523256 0.472559 0.469271
107 1 0.50722 0.473127 0.477415
116 2 0.502567 0.490613 0.473689
118 2 0.502148 0.486832 0.488739
91 2 0.514057 0.475234 0.492774
8 2 0.518376 0.48649 0.479221
73 2 0.528062 0.488519 0.494693
83 2 0.515854 0.498565 0.49135
28 1 0.530538 0.474415 0.483727
63 1 0.543612 0.490159 0.487979
121 1 0.464133 0.514814 0.481619
33 2 0.458995 0.505165 0.497571
54 2 0.474332 0.506743 0.469292
37 1 0.475086 0.525998 0.472586
84 2 0.474709 0.50242 0.486846
68 2 0.476611 0.521675 0.489633
126 2 0.487309 0.514247 0.478766
9 2 0.488082 0.509559 0.495136
90 2 0.495386 0.527428 0.489406
25 2 0.498724 0.503724 0.483781
65 1 0.491294 0.529953 0.472211
103 2 0.528753 0.498607 0.480929
110 2 0.514321 0.502945 0.475869
55 2 0.505204 0.517452 0.477398
97 2 0.505002 0.51411 0.494588
106 2 0.521023 0.513536 0.48674
102 2 0.527961 0.507032 0.500113
27 1 0.535104 0.514386 0.477199
70 1 0.543728 0.505323 0.488738
23 1 0.533909 0.523763 0.492546
98 1 0.462445 0.532401 0.483324
86 1 0.481186 0.538579 0.484564
32 2 0.500804 0.541036 0.483821
61 1 0.472978 0.534584 0.501041
96 2 0.513392 0.529933 0.489552
46 1 0.516036 0.544806 0.48074
1 1 0.523543 0.542875 0.493964
136 1 0.506328 0.543137 0.500543
77 1 0.527224 0.529952 0.480388
112 1 0.491523 0.451367 0.497437
31 1 0.472247 0.467923 0.522204
51 1 0.468516 0.460426 0.502667
22 2 0.484951 0.466041 0.507462
40 2 0.491457 0.466949 0.522518
80 1 0.499457 0.458181 0.510283
101 1 0.519212 0.460164 0.518926
109 2 0.507658 0.470737 0.527194
18 1 0.536874 0.465758 0.515888
16 1 0.465167 0.484695 0.524738
42 1 0.45624 0.49348 0.510884
52 2 0.465553 0.478198 0.509343
30 1 0.45827 0.499779 0.527611
93 2 0.500342 0.498115 0.498249
66 2 0.472523 0.493903 0.50161
81 2 0.495 0.483365 0.504958
13 2 0.480296 0.484513 0.515725
123 1 0.484353 0.497009 0.52538
71 2 0.495723 0.48281 0.523926
137 2 0.470946 0.500488 0.515862
120 1 0.52474 0.472943 0.528625
141 2 0.51286 0.471593 0.508634
35 2 0.501028 0.496609 0.516201
131 2 0.526174 0.478267 0.506921
92 2 0.513057 0.487346 0.502493
108 2 0.526023 0.494645 0.511721
69 2 0.514089 0.483889 0.520168
24 2 0.526678 0.492377 0.528552
50 1 0.542488 0.47668 0.505266
59 1 0.53935 0.481844 0.52072
72 2 0.542408 0.495667 0.504016
10 2 0.459723 0.522505 0.499151
117 1 0.459126 0.514103 0.514648
79 1 0.468954 0.526161 0.514375
129 2 0.466942 0.513551 0.531942
14 2 0.48675 0.499404 0.508363
2 2 0.472732 0.511186 0.50283
48 2 0.484566 0.523731 0.505501
4 2 0.481772 0.513698 0.51886
26 2 0.494046 0.525656 0.521486
64 2 0.496628 0.512087 0.509911
58 2 0.497716 0.507926 0.526013
94 2 0.518656 0.520707 0.502251
76 2 0.515626 0.503767 0.523571
115 1 0.512789 0.505693 0.507653
34 2 0.510952 0.520792 0.517378
11 2 0.527585 0.512115 0.515547
88 2 0.504163 0.526836 0.505106
134 1 0.54043 0.501168 0.518214
95 2 0.525647 0.52666 0.525099
20 2 0.531661 0.528196 0.510224
62 1 0.541938 0.512369 0.506051
133 2 0.491431 0.540294 0.499648
140 1 0.482101 0.538424 0.513726
82 1 0.49988 0.540709 0.516348
7 2 0.508898 0.531226 0.530006
41 1 0.516041 0.53662 0.513028
105 1 0.472787 0.498243 0.535735
89 1 0.48013 0.480621 0.532164
39 1 0.490989 0.494264 0.541014
49 1 0.49735 0.475893 0.539757
78 2 0.50511 0.494138 0.531687
38 1 0.514307 0.483152 0.540065
104 2 0.480578 0.52641 0.529685
12 2 0.484338 0.511295 0.536573
45 1 0.496339 0.525022 0.539169
124 1 0.500584 0.507808 0.544127
15 2 0.517629 0.500104 0.541266
17 1 0.512694 0.516167 0.535162
43 1 0.530687 0.509753 0.532737
47 1 0.490686 0.538635 0.532965
ITEM: TIMESTEP
3360000
ITEM: NUMBER OF ATOMS
141
ITEM: BOX BOUNDS pp pp pp
0.0000000000000000e+00 1.4356000000000000e+02
0.0000000000000000e+00 1.4356000000000000e+02
0.0000000000000000e+00 1.4356000000000000e+02
ITEM: ATOMS id type xs ys zs
130 1 0.495708 0.462227 0.474854
56 2 0.473278 0.489685 0.46723
114 2 0.485597 0.479095 0.464716
44 1 0.487379 0.497207 0.456511
125 2 0.502439 0.492061 0.456309
127 1 0.502937 0.473004 0.461801
132 2 0.515701 0.488811 0.465218
36 1 0.531676 0.484752 0.471858
99 2 0.487045 0.516942 0.46182
85 2 0.50001 0.504769 0.466202
54 2 0.472519 0.506999 0.465622
87 1 0.505927 0.520969 0.463601
111 1 0.515445 0.506711 0.456202
21 1 0.528309 0.500268 0.46273
60 2 0.522953 0.520517 0.465101
65 1 0.489798 0.530817 0.472782
138 1 0.508948 0.533263 0.473287
75 1 0.463341 0.471423 0.488648
119 1 0.484415 0.462961 0.492985
19 1 0.501052 0.453825 0.487107
53 1 0.516839 0.461073 0.484429
135 1 0.461302 0.479525 0.472808
122 2 0.458468 0.487612 0.493877
100 1 0.461205 0.497 0.47857
128 2 0.499912 0.469063 0.492587
29 1 0.47783 0.470108 0.480309
5 2 0.471806 0.487226 0.483644
3 2 0.486649 0.492915 0.490622
67 2 0.491386 0.47844 0.481433
6 2 0.478587 0.478097 0.495718
57 2 0.484207 0.496985 0.475687
74 1 0.519841 0.472566 0.467595
107 1 0.507184 0.472695 0.478397
93 2 0.500883 0.499148 0.499004
116 2 0.499041 0.488162 0.472198
118 2 0.502039 0.488173 0.487453
91 2 0.513726 0.47613 0.494699
8 2 0.516689 0.486527 0.481984
73 2 0.526625 0.489355 0.496571
83 2 0.514572 0.501019 0.490857
103 2 0.528843 0.500412 0.483563
28 1 0.52888 0.474091 0.485597
63 1 0.542486 0.492821 0.487639
121 1 0.461647 0.516267 0.480066
33 2 0.458101 0.505474 0.494288
37 1 0.475322 0.524961 0.471128
84 2 0.47342 0.504545 0.486623
68 2 0.476465 0.522095 0.489867
126 2 0.485818 0.513397 0.476804
9 2 0.488927 0.510534 0.494523
90 2 0.492024 0.526186 0.492081
25 2 0.499054 0.504174 0.482766
110 2 0.514604 0.506223 0.474899
55 2 0.502628 0.518812 0.479363
97 2 0.504523 0.516083 0.496137
106 2 0.51973 0.516781 0.488509
102 2 0.528563 0.507613 0.499299
27 1 0.534997 0.517091 0.478944
70 1 0.544096 0.508476 0.493087
23 1 0.534014 0.522356 0.494335
98 1 0.463937 0.531516 0.48403
86 1 0.480871 0.538705 0.484996
32 2 0.498275 0.540267 0.483848
133 2 0.494147 0.541559 0.499841
96 2 0.510827 0.531243 0.491872
46 1 0.514764 0.546309 0.482477
1 1 0.525943 0.535972 0.497234
77 1 0.5242 0.531944 0.480237
51 1 0.470979 0.463185 0.504624
112 1 0.494986 0.454528 0.502302
31 1 0.472259 0.466102 0.521298
40 2 0.488965 0.466215 0.52257
22 2 0.489759 0.469593 0.507035
113 1 0.528539 0.462815 0.498629
139 1 0.511805 0.460186 0.501298
80 1 0.504241 0.457338 0.516061
101 1 0.519673 0.461471 0.514783
18 1 0.538009 0.467416 0.510914
16 1 0.463872 0.483471 0.523205
42 1 0.456612 0.492426 0.50959
52 2 0.464626 0.480225 0.505816
30 1 0.457529 0.498667 0.525481
66 2 0.471426 0.493874 0.499272
137 2 0.472699 0.496499 0.51803
81 2 0.495641 0.483306 0.502046
13 2 0.47991 0.479838 0.513238
123 1 0.487272 0.496312 0.526622
71 2 0.495222 0.481505 0.519651
14 2 0.48568 0.498003 0.50735
35 2 0.503 0.497483 0.518291
109 2 0.508923 0.469263 0.526422
141 2 0.506515 0.473768 0.510035
131 2 0.523452 0.477352 0.507825
92 2 0.511597 0.488618 0.505654
108 2 0.525547 0.495581 0.510642
69 2 0.513438 0.483631 0.522022
50 1 0.540075 0.47882 0.497006
59 1 0.537744 0.48291 0.515722
72 2 0.543773 0.495053 0.503851
10 2 0.461559 0.520542 0.498468
117 1 0.459438 0.511835 0.512387
129 2 0.46864 0.511664 0.527829
79 1 0.469373 0.525405 0.515051
2 2 0.474315 0.509267 0.502978
48 2 0.484312 0.522986 0.506645
4 2 0.483247 0.510773 0.517769
26 2 0.492962 0.523863 0.521024
64 2 0.497802 0.511883 0.510833
58 2 0.499841 0.510417 0.527902
104 2 0.479443 0.524167 0.531355
94 2 0.518752 0.521938 0.503428
76 2 0.515383 0.505223 0.526612
115 1 0.514173 0.505592 0.506964
34 2 0.511553 0.519342 0.519568
11 2 0.528175 0.512979 0.516216
88 2 0.503539 0.528981 0.507694
134 1 0.541076 0.499714 0.520388
20 2 0.532719 0.527872 0.511162
62 1 0.543823 0.512599 0.507881
61 1 0.474059 0.536164 0.500331
140 1 0.483926 0.539796 0.51539
136 1 0.510019 0.546408 0.499488
82 1 0.501552 0.543121 0.515817
41 1 0.519727 0.537216 0.512706
7 2 0.508043 0.532484 0.528235
105 1 0.472322 0.496232 0.534798
89 1 0.479018 0.478874 0.531242
39 1 0.487284 0.489641 0.542444
49 1 0.497358 0.477445 0.536032
120 1 0.526784 0.474684 0.527644
78 2 0.503814 0.494307 0.534337
38 1 0.5158 0.482412 0.539576
15 2 0.520902 0.501044 0.54145
24 2 0.525764 0.493253 0.52654
12 2 0.486453 0.509285 0.53883
45 1 0.499757 0.521995 0.539511
95 2 0.524722 0.527377 0.528237
124 1 0.502329 0.507592 0.545126
17 1 0.51604 0.516697 0.539
43 1 0.531689 0.512349 0.534128
47 1 0.491278 0.538545 0.530427
ITEM: TIMESTEP
3365000
ITEM: NUMBER OF ATOMS
141
ITEM: BOX BOUNDS pp pp pp
0.0000000000000000e+00 1.4356000000000000e+02
0.0000000000000000e+00 1.4356000000000000e+02
0.0000000000000000e+00 1.4356000000000000e+02
ITEM: ATOMS id type xs ys zs
56 2 0.475357 0.49008 0.46741
114 2 0.49046 0.482587 0.465423
125 2 0.498898 0.491688 0.455297
127 1 0.507299 0.474834 0.460946
132 2 0.517819 0.488319 0.463471
74 1 0.521736 0.471117 0.469915
44 1 0.483502 0.500853 0.45679
99 2 0.487092 0.516525 0.462661
85 2 0.498035 0.503759 0.467239
54 2 0.474363 0.507982 0.469248
87 1 0.502716 0.521624 0.458655
111 1 0.510928 0.504644 0.459552
60 2 0.518739 0.515878 0.469271
21 1 0.52975 0.502115 0.464327
130 1 0.493353 0.466012 0.469854
119 1 0.48177 0.459439 0.488004
112 1 0.494173 0.454556 0.502367
128 2 0.498141 0.469841 0.496479
19 1 0.499979 0.458682 0.485095
53 1 0.517162 0.461534 0.483633
75 1 0.468665 0.470828 0.488551
135 1 0.46246 0.481489 0.477351
122 2 0.461658 0.488918 0.49391
29 1 0.476392 0.473146 0.473106
5 2 0.474287 0.487703 0.485051
3 2 0.487642 0.495227 0.49157
67 2 0.490425 0.479526 0.482628
6 2 0.482453 0.47697 0.496626
57 2 0.486426 0.498414 0.476643
116 2 0.502507 0.488705 0.473298
107 1 0.506341 0.473159 0.479509
118 2 0.50334 0.488127 0.489554
91 2 0.516694 0.474153 0.496967
8 2 0.519085 0.484698 0.479865
73 2 0.52813 0.486429 0.493512
83 2 0.516083 0.497747 0.490715
103 2 0.529604 0.499627 0.482205
93 2 0.500109 0.499438 0.500661
36 1 0.533068 0.487056 0.472598
28 1 0.532044 0.473446 0.483839
63 1 0.542478 0.489633 0.487626
100 1 0.461852 0.498123 0.477879
121 1 0.462402 0.516658 0.481979
33 2 0.464194 0.503589 0.500289
37 1 0.475748 0.525065 0.474432
84 2 0.474006 0.505362 0.488916
68 2 0.475953 0.52222 0.491208
126 2 0.487559 0.513321 0.478419
9 2 0.48898 0.511317 0.494151
90 2 0.493919 0.526522 0.488988
25 2 0.501345 0.502545 0.482995
110 2 0.514941 0.501085 0.474261
55 2 0.505535 0.517853 0.476086
97 2 0.504665 0.515408 0.494328
106 2 0.519477 0.515297 0.486761
102 2 0.53072 0.508741 0.497246
27 1 0.534587 0.515486 0.475881
70 1 0.546373 0.507089 0.490818
23 1 0.534187 0.5246 0.492329
98 1 0.465859 0.534176 0.487036
65 1 0.491729 0.530614 0.471441
86 1 0.482315 0.539428 0.483344
32 2 0.500594 0.540644 0.482932
133 2 0.489855 0.543108 0.500118
138 1 0.509065 0.532294 0.469454
96 2 0.511108 0.529705 0.488531
46 1 0.515813 0.548961 0.484118
1 1 0.521299 0.537664 0.498453
77 1 0.523907 0.531628 0.478509
136 1 0.506138 0.543738 0.49934
51 1 0.479335 0.461109 0.50684
31 1 0.476341 0.46755 0.521169
40 2 0.491727 0.465251 0.528111
22 2 0.490681 0.470317 0.512037
80 1 0.50253 0.456325 0.517245
139 1 0.510195 0.458041 0.498551
113 1 0.527641 0.462938 0.499073
101 1 0.521278 0.456748 0.513499
109 2 0.507297 0.470117 0.52559
18 1 0.536259 0.466152 0.51489
16 1 0.463922 0.483425 0.52318
42 1 0.45869 0.491336 0.510767
52 2 0.468148 0.474565 0.504652
30 1 0.456134 0.497681 0.526059
66 2 0.476341 0.490779 0.50125
137 2 0.472124 0.501222 0.516367
81 2 0.492441 0.484652 0.504865
13 2 0.480011 0.48454 0.51548
123 1 0.486016 0.498048 0.525495
71 2 0.496888 0.480769 0.522706
14 2 0.485274 0.501044 0.509457
35 2 0.500733 0.497335 0.515941
141 2 0.508763 0.472745 0.510124
131 2 0.525447 0.47833 0.508902
92 2 0.511832 0.489037 0.504787
108 2 0.526776 0.495642 0.511886
69 2 0.513533 0.484964 0.521215
120 1 0.525243 0.472224 0.525496
24 2 0.52633 0.492379 0.529034
50 1 0.540258 0.477489 0.502461
59 1 0.538419 0.484632 0.516653
72 2 0.543272 0.495698 0.504441
10 2 0.459825 0.521872 0.498588
117 1 0.457273 0.511037 0.514209
129 2 0.467689 0.512302 0.530751
79 1 0.467606 0.524374 0.515662
2 2 0.476072 0.513616 0.505643
48 2 0.485927 0.526975 0.503878
4 2 0.482066 0.514391 0.521319
26 2 0.494205 0.524865 0.517969
64 2 0.497409 0.512578 0.50981
94 2 0.518199 0.522001 0.50161
76 2 0.513959 0.50094 0.523074
115 1 0.514854 0.505525 0.504674
34 2 0.511958 0.516953 0.517486
11 2 0.526792 0.513253 0.512758
95 2 0.525015 0.52537 0.525179
88 2 0.503507 0.526732 0.504566
58 2 0.498181 0.510596 0.527024
134 1 0.540628 0.503722 0.518908
20 2 0.530302 0.529456 0.51077
62 1 0.54288 0.514134 0.504749
61 1 0.472775 0.537638 0.501011
140 1 0.479544 0.535703 0.517881
82 1 0.498441 0.543459 0.514147
47 1 0.491927 0.535139 0.531832
41 1 0.513927 0.535815 0.512676
7 2 0.508088 0.529975 0.528941
105 1 0.472022 0.496579 0.535818
89 1 0.482126 0.480952 0.531685
39 1 0.488296 0.494208 0.543114
49 1 0.496339 0.479461 0.54049
78 2 0.500519 0.495455 0.531381
38 1 0.514095 0.480565 0.537271
15 2 0.51321 0.498298 0.540288
104 2 0.478021 0.52637 0.532936
12 2 0.482958 0.508495 0.536876
45 1 0.49288 0.52158 0.540062
124 1 0.498415 0.507797 0.545453
17 1 0.513572 0.51408 0.536253
43 1 0.528495 0.509073 0.532172
ITEM: TIMESTEP
3370000
ITEM: NUMBER OF ATOMS
141
ITEM: BOX BOUNDS pp pp pp
0.0000000000000000e+00 1.4356000000000000e+02
0.0000000000000000e+00 1.4356000000000000e+02
0.0000000000000000e+00 1.4356000000000000e+02
ITEM: ATOMS id type xs ys zs
130 1 0.493043 0.465613 0.472573
56 2 0.471949 0.488264 0.468113
114 2 0.486857 0.480265 0.463837
44 1 0.485372 0.49834 0.456652
125 2 0.499878 0.492356 0.455473
127 1 0.502519 0.47505 0.462042
132 2 0.516407 0.490014 0.463678
74 1 0.523193 0.475627 0.466039
99 2 0.485777 0.513619 0.463017
85 2 0.500571 0.503952 0.467349
87 1 0.502801 0.518958 0.460132
37 1 0.47465 0.522568 0.471528
111 1 0.514702 0.506463 0.456376
60 2 0.517709 0.518202 0.468718
21 1 0.529129 0.502089 0.465185
119 1 0.484271 0.46184 0.487404
51 1 0.472784 0.461537 0.500123
19 1 0.50212 0.459611 0.48792
53 1 0.522345 0.464158 0.481718
75 1 0.464295 0.470682 0.488241
135 1 0.458367 0.479573 0.475649
122 2 0.458339 0.485885 0.491996
100 1 0.458214 0.498038 0.478925
128 2 0.496558 0.47247 0.495266
29 1 0.474848 0.472301 0.474253
5 2 0.472786 0.486251 0.484142
3 2 0.486891 0.492459 0.492282
67 2 0.488901 0.479931 0.482768
6 2 0.48172 0.476391 0.496471
57 2 0.485745 0.495164 0.475024
116 2 0.500196 0.488258 0.472735
107 1 0.507085 0.474977 0.478976
118 2 0.50353 0.486944 0.49071
91 2 0.515921 0.477575 0.492401
8 2 0.51991 0.488545 0.48089
73 2 0.526666 0.491539 0.495817
83 2 0.514596 0.502166 0.491958
36 1 0.537339 0.487536 0.472993
28 1 0.532245 0.477175 0.484862
63 1 0.543593 0.489011 0.489233
121 1 0.462784 0.513718 0.481569
33 2 0.461301 0.504732 0.495339
10 2 0.462246 0.52021 0.50093
54 2 0.473144 0.506897 0.47027
25 2 0.499998 0.501243 0.484228
84 2 0.475237 0.503985 0.485702
68 2 0.477357 0.523364 0.491397
126 2 0.487821 0.512315 0.47773
9 2 0.488994 0.510247 0.495609
90 2 0.494682 0.525029 0.488649
103 2 0.530593 0.501257 0.482168
110 2 0.514431 0.502609 0.475069
55 2 0.504422 0.517323 0.479426
97 2 0.505056 0.515258 0.496502
106 2 0.520645 0.515733 0.484672
27 1 0.53484 0.517926 0.475257
70 1 0.544666 0.505582 0.487956
23 1 0.537464 0.521562 0.493064
98 1 0.462335 0.531203 0.486009
65 1 0.491134 0.528109 0.470087
86 1 0.479388 0.537309 0.48112
32 2 0.499347 0.538431 0.482314
96 2 0.511 0.530096 0.490146
77 1 0.525923 0.53084 0.480398
138 1 0.509384 0.530758 0.470556
46 1 0.516433 0.545399 0.481848
1 1 0.524951 0.536585 0.496316
112 1 0.492978 0.454402 0.501566
31 1 0.473755 0.468909 0.519166
22 2 0.48838 0.47037 0.5088
40 2 0.488445 0.463174 0.526283
139 1 0.511885 0.461913 0.500227
80 1 0.502683 0.459226 0.514771
101 1 0.522047 0.461293 0.515799
109 2 0.510234 0.468575 0.527004
113 1 0.527447 0.467198 0.498762
18 1 0.537495 0.463893 0.511698
16 1 0.463663 0.484254 0.523573
42 1 0.457525 0.49505 0.50954
52 2 0.466759 0.478106 0.506173
30 1 0.456733 0.500761 0.529033
66 2 0.472097 0.493481 0.499671
137 2 0.472067 0.498106 0.518207
81 2 0.496049 0.484499 0.507398
13 2 0.479814 0.484604 0.512301
123 1 0.485635 0.491407 0.526015
71 2 0.497734 0.478195 0.52319
89 1 0.47926 0.478113 0.532926
93 2 0.499835 0.500129 0.50098
35 2 0.500098 0.49578 0.518374
141 2 0.510364 0.474378 0.510059
131 2 0.52623 0.478725 0.510185
92 2 0.513447 0.48938 0.503801
108 2 0.52707 0.496037 0.515172
69 2 0.512514 0.486768 0.520872
50 1 0.541193 0.478421 0.502063
59 1 0.539095 0.482857 0.519462
72 2 0.540079 0.496886 0.504476
117 1 0.457397 0.511087 0.514643
129 2 0.468159 0.512468 0.529579
79 1 0.472375 0.523632 0.514675
14 2 0.485579 0.499337 0.510364
2 2 0.47496 0.509198 0.503168
48 2 0.486334 0.523145 0.504602
4 2 0.481954 0.512812 0.520773
26 2 0.494264 0.526334 0.520586
64 2 0.498694 0.512818 0.512247
58 2 0.499294 0.511855 0.529784
94 2 0.519342 0.521573 0.501196
76 2 0.512525 0.503832 0.524739
115 1 0.51388 0.5043 0.509071
34 2 0.510953 0.519872 0.518861
11 2 0.528356 0.511598 0.515944
95 2 0.525467 0.528371 0.524003
88 2 0.502824 0.529017 0.504833
102 2 0.530364 0.507779 0.498134
134 1 0.541312 0.500574 0.522875
62 1 0.544428 0.512803 0.507977
20 2 0.531649 0.52749 0.509034
133 2 0.488715 0.538717 0.49594
61 1 0.473071 0.536401 0.501674
140 1 0.48387 0.538645 0.516124
82 1 0.500815 0.543521 0.515449
136 1 0.506116 0.544625 0.49836
41 1 0.517351 0.53746 0.513716
7 2 0.509446 0.53318 0.527956
105 1 0.473231 0.494093 0.536914
39 1 0.487858 0.491741 0.544832
49 1 0.495678 0.472248 0.538871
120 1 0.526529 0.474949 0.526569
78 2 0.500971 0.493263 0.534575
38 1 0.513536 0.480777 0.537502
24 2 0.526446 0.491816 0.530512
104 2 0.481094 0.525567 0.530819
12 2 0.483289 0.506829 0.53481
45 1 0.497983 0.528529 0.539079
15 2 0.515498 0.499948 0.540026
124 1 0.497337 0.507488 0.54534
17 1 0.513928 0.518469 0.537461
43 1 0.526687 0.510303 0.530824
47 1 0.492284 0.540235 0.529442
ITEM: TIMESTEP
3375000
ITEM: NUMBER OF ATOMS
141
ITEM: BOX BOUNDS pp pp pp
0.0000000000000000e+00 1.4356000000000000e+02
0.0000000000000000e+00 1.4356000000000000e+02
0.0000000000000000e+00 1.4356000000000000e+02
ITEM: ATOMS id type xs ys zs
56 2 0.473635 0.490562 0.46733
114 2 0.489516 0.482992 0.464005
44 1 0.485288 0.496423 0.45614
125 2 0.500309 0.492391 0.455371
127 1 0.502871 0.473549 0.460897
132 2 0.514983 0.488274 0.464054
74 1 0.522694 0.471829 0.470836
99 2 0.485027 0.51475 0.462098
85 2 0.497758 0.504712 0.466751
54 2 0.471171 0.507141 0.47026
87 1 0.502923 0.517742 0.456295
111 1 0.51334 0.505546 0.456538
60 2 0.518601 0.520423 0.467679
21 1 0.528032 0.50319 0.466885
130 1 0.493125 0.466396 0.472288
119 1 0.482161 0.463119 0.4865
19 1 0.503317 0.457811 0.484367
53 1 0.521031 0.460359 0.485126
75 1 0.466971 0.471538 0.490468
135 1 0.459206 0.482563 0.47406
122 2 0.45712 0.486424 0.490578
100 1 0.458748 0.498676 0.476804
128 2 0.498608 0.472579 0.493027
29 1 0.476524 0.475263 0.474058
5 2 0.473042 0.486489 0.48559
3 2 0.487242 0.492808 0.49485
67 2 0.488826 0.47965 0.48249
6 2 0.481392 0.4773 0.496483
57 2 0.486083 0.496552 0.477263
36 1 0.532975 0.487337 0.473001
116 2 0.5018 0.488805 0.472602
107 1 0.507622 0.473542 0.4781
118 2 0.502386 0.487931 0.490686
91 2 0.514752 0.474874 0.493927
8 2 0.517154 0.487544 0.480522
73 2 0.528303 0.487085 0.497198
93 2 0.502072 0.500915 0.499801
103 2 0.530069 0.502008 0.48489
28 1 0.530095 0.474652 0.484646
63 1 0.543963 0.491694 0.493545
121 1 0.462296 0.515351 0.482163
33 2 0.459686 0.502975 0.495199
10 2 0.463867 0.520171 0.499815
37 1 0.473757 0.525045 0.472266
25 2 0.498715 0.504008 0.482784
84 2 0.473943 0.503458 0.486961
68 2 0.477214 0.523343 0.490399
126 2 0.487161 0.513852 0.477859
9 2 0.488899 0.511002 0.494714
90 2 0.494207 0.525802 0.489965
65 1 0.490214 0.530211 0.471908
83 2 0.516853 0.498244 0.492703
110 2 0.51183 0.504007 0.473071
55 2 0.504715 0.518076 0.475416
97 2 0.505735 0.513624 0.494099
106 2 0.518631 0.513601 0.48363
102 2 0.530924 0.508684 0.500168
96 2 0.510344 0.528588 0.487036
77 1 0.525538 0.530801 0.478757
27 1 0.53381 0.516077 0.47423
70 1 0.547627 0.509083 0.490838
23 1 0.535112 0.520127 0.490435
98 1 0.464806 0.532802 0.485041
86 1 0.482239 0.537695 0.484111
133 2 0.491732 0.541674 0.498892
61 1 0.475289 0.535476 0.5013
32 2 0.499408 0.53988 0.482496
138 1 0.508295 0.533923 0.470386
46 1 0.518343 0.545063 0.48025
1 1 0.525539 0.536718 0.496187
136 1 0.508877 0.54269 0.497029
112 1 0.494038 0.45452 0.501313
51 1 0.476025 0.461388 0.501313
31 1 0.476204 0.467413 0.519117
22 2 0.489538 0.469235 0.509674
40 2 0.491745 0.467766 0.527034
113 1 0.52946 0.466434 0.499368
139 1 0.510135 0.458843 0.500514
80 1 0.502438 0.455692 0.515746
101 1 0.520332 0.460452 0.514137
109 2 0.507048 0.469956 0.528171
18 1 0.53649 0.468764 0.514311
16 1 0.468844 0.48371 0.522405
42 1 0.455574 0.491602 0.509162
52 2 0.466102 0.476569 0.506614
66 2 0.471774 0.491733 0.500147
137 2 0.470505 0.498669 0.515866
81 2 0.496568 0.485848 0.505913
13 2 0.481839 0.482989 0.511028
123 1 0.484154 0.495727 0.526871
71 2 0.495042 0.482463 0.523233
14 2 0.486155 0.499628 0.509805
35 2 0.502421 0.497192 0.515774
141 2 0.508587 0.473477 0.512617
131 2 0.523396 0.477759 0.509779
92 2 0.512453 0.489265 0.505178
108 2 0.526469 0.49447 0.512297
69 2 0.513948 0.485182 0.522455
120 1 0.52636 0.470059 0.528539
24 2 0.525467 0.493144 0.530898
50 1 0.541975 0.481066 0.506712
59 1 0.53716 0.482898 0.522433
72 2 0.54289 0.500436 0.507276
30 1 0.456167 0.496685 0.525066
117 1 0.457799 0.508693 0.512563
79 1 0.471994 0.524516 0.515361
129 2 0.467547 0.509092 0.527428
2 2 0.473295 0.509916 0.502493
48 2 0.484976 0.521703 0.505046
4 2 0.483317 0.512675 0.52015
26 2 0.494369 0.525104 0.521793
64 2 0.496692 0.511729 0.510785
104 2 0.479327 0.526201 0.532592
58 2 0.499698 0.510306 0.5284
94 2 0.518657 0.520934 0.499969
76 2 0.51397 0.503033 0.524161
115 1 0.514137 0.505973 0.508595
34 2 0.511786 0.519388 0.515525
11 2 0.529101 0.511982 0.515368
95 2 0.524723 0.525971 0.524388
88 2 0.503114 0.528587 0.504142
134 1 0.538273 0.499503 0.523805
62 1 0.545617 0.51814 0.507172
140 1 0.482353 0.539224 0.517148
82 1 0.500331 0.540713 0.51667
20 2 0.529696 0.526737 0.508401
41 1 0.516979 0.537685 0.512609
105 1 0.469464 0.49324 0.535796
89 1 0.479945 0.479727 0.532799
39 1 0.487418 0.493314 0.543415
49 1 0.497888 0.478239 0.541471
78 2 0.502112 0.494884 0.531785
38 1 0.516537 0.480993 0.538594
12 2 0.483459 0.510104 0.535231
45 1 0.497473 0.52447 0.5384
124 1 0.501579 0.50716 0.54629
15 2 0.51427 0.498783 0.541037
17 1 0.513177 0.518668 0.538943
43 1 0.527969 0.509191 0.532534
47 1 0.491865 0.538695 0.530698
7 2 0.508512 0.531256 0.527604
ITEM: TIMESTEP
3380000
ITEM: NUMBER OF ATOMS
141
ITEM: BOX BOUNDS pp pp pp
0.0000000000000000e+00 1.4356000000000000e+02
0.0000000000000000e+00 1.4356000000000000e+02
0.0000000000000000e+00 1.4356000000000000e+02
ITEM: ATOMS id type xs ys zs
130 1 0.492035 0.465323 0.46991
74 1 0.52067 0.475286 0.47108
56 2 0.471927 0.489393 0.466164
114 2 0.489143 0.483648 0.465268
44 1 0.482381 0.494705 0.457345
125 2 0.501109 0.493024 0.45605
127 1 0.506473 0.479701 0.462589
132 2 0.5172 0.491266 0.464485
99 2 0.486345 0.513606 0.461881
85 2 0.498708 0.504617 0.465987
54 2 0.472198 0.506462 0.468554
87 1 0.502998 0.520546 0.461632
111 1 0.511836 0.506764 0.457224
60 2 0.519082 0.518309 0.469387
21 1 0.528801 0.503407 0.463779
75 1 0.468395 0.469707 0.489587
119 1 0.484171 0.463667 0.485408
19 1 0.499302 0.456667 0.487325
53 1 0.515664 0.46282 0.485875
139 1 0.509397 0.455086 0.50157
113 1 0.525197 0.462522 0.500232
135 1 0.460418 0.480536 0.476536
122 2 0.459687 0.4848 0.49341
100 1 0.462751 0.496765 0.479505
29 1 0.475793 0.472256 0.472629
128 2 0.499961 0.47077 0.494483
5 2 0.473918 0.485805 0.483399
3 2 0.488355 0.493249 0.492673
67 2 0.489701 0.479804 0.481506
6 2 0.483172 0.477292 0.496392
57 2 0.485993 0.496325 0.475263
66 2 0.473063 0.493044 0.500988
116 2 0.501876 0.489528 0.47432
107 1 0.506288 0.47143 0.477818
118 2 0.504784 0.486766 0.490923
91 2 0.516855 0.476878 0.495158
8 2 0.517643 0.486842 0.481195
73 2 0.528206 0.488164 0.497361
103 2 0.529808 0.498394 0.48215
36 1 0.53477 0.487804 0.469304