ITEM: TIMESTEP
1700000
ITEM: NUMBER OF ATOMS
141
ITEM: BOX BOUNDS pp pp pp
0.0000000000000000e+00 1.4356000000000000e+02
0.0000000000000000e+00 1.4356000000000000e+02
0.0000000000000000e+00 1.4356000000000000e+02
ITEM: ATOMS id type xs ys zs
75 1 0.48965 0.462402 0.466851
47 1 0.505424 0.466565 0.469456
70 1 0.466859 0.491288 0.469895
117 1 0.482175 0.495509 0.462385
45 1 0.478575 0.476707 0.467608
116 2 0.49442 0.478376 0.461598
43 1 0.499213 0.496419 0.454594
59 1 0.511279 0.482097 0.460016
18 1 0.525987 0.489377 0.463959
29 1 0.524241 0.47165 0.470157
23 1 0.476013 0.510259 0.462653
113 1 0.491178 0.509642 0.457504
111 1 0.484842 0.522998 0.469077
77 1 0.519926 0.503564 0.459816
27 1 0.501676 0.524627 0.462174
87 1 0.509505 0.511918 0.4521
55 2 0.505005 0.507343 0.467317
28 1 0.518415 0.518766 0.465504
58 2 0.468297 0.468856 0.495729
16 1 0.480143 0.464076 0.481716
130 1 0.495319 0.461081 0.482806
107 1 0.488512 0.458399 0.49924
49 1 0.514897 0.464499 0.483487
17 1 0.50489 0.456193 0.498017
129 2 0.530572 0.470492 0.489356
92 2 0.457973 0.480316 0.498243
25 2 0.458201 0.494931 0.485684
140 1 0.468564 0.47964 0.483843
6 2 0.472558 0.492739 0.494147
85 2 0.481804 0.490464 0.479478
137 2 0.483443 0.476903 0.492307
110 2 0.493551 0.477259 0.477571
3 2 0.496893 0.488209 0.488785
24 2 0.497384 0.493539 0.472851
13 2 0.50019 0.473072 0.494494
72 2 0.510079 0.480628 0.476584
84 2 0.513579 0.491809 0.492091
8 2 0.526566 0.485727 0.481641
132 2 0.514983 0.496889 0.475012
15 2 0.515608 0.476025 0.497338
102 2 0.501363 0.499734 0.499886
94 2 0.540212 0.482526 0.49452
54 2 0.540851 0.497149 0.481236
44 1 0.543604 0.499412 0.497972
20 2 0.456886 0.511829 0.484525
97 2 0.469969 0.519489 0.477214
125 2 0.47119 0.502808 0.480895
126 2 0.487341 0.50726 0.47366
5 2 0.486887 0.502394 0.489638
83 2 0.483121 0.518378 0.487169
35 2 0.497335 0.51477 0.495362
10 2 0.472675 0.510748 0.498351
26 2 0.499466 0.519292 0.478876
9 2 0.502898 0.503091 0.483631
12 2 0.515188 0.513943 0.479587
33 2 0.512131 0.511524 0.497457
60 2 0.511729 0.52676 0.49329
106 2 0.526289 0.504531 0.487412
91 2 0.526904 0.520846 0.495095
11 2 0.532504 0.506275 0.471321
56 2 0.531193 0.521191 0.476656
1 1 0.54332 0.512748 0.486655
79 1 0.468351 0.530661 0.491465
39 1 0.497934 0.537768 0.472667
114 2 0.494702 0.531903 0.489726
134 1 0.481121 0.535427 0.479316
30 1 0.482341 0.541224 0.495053
90 2 0.511972 0.529815 0.47691
52 2 0.508495 0.542716 0.487943
46 1 0.526796 0.533879 0.484702
19 1 0.459664 0.468923 0.512841
63 1 0.476757 0.462194 0.512556
80 1 0.493997 0.458896 0.517839
21 1 0.483311 0.47032 0.525647
78 2 0.521673 0.462317 0.501269
31 1 0.522501 0.465853 0.519625
81 2 0.507127 0.468054 0.511728
105 1 0.503304 0.464678 0.528891
32 2 0.459378 0.490002 0.513214
131 2 0.467373 0.47872 0.523085
135 1 0.467601 0.496969 0.527334
57 2 0.486378 0.489476 0.502314
7 2 0.491364 0.473236 0.507858
122 2 0.473174 0.480095 0.507158
118 2 0.481967 0.486176 0.519936
14 2 0.494865 0.495743 0.514698
67 2 0.473284 0.498814 0.510308
22 2 0.498853 0.479236 0.521831
71 2 0.505295 0.484786 0.505125
141 2 0.517961 0.480631 0.514457
104 2 0.52645 0.496138 0.519912
103 2 0.509766 0.493781 0.524406
115 1 0.52682 0.488876 0.501767
109 2 0.514257 0.498458 0.509063
4 2 0.513131 0.477457 0.528767
120 1 0.533295 0.472546 0.508115
51 1 0.53165 0.480307 0.523158
101 1 0.542495 0.487452 0.510659
136 1 0.541624 0.494141 0.528634
53 1 0.458286 0.500513 0.500714
74 1 0.457501 0.517149 0.500429
139 1 0.458988 0.507688 0.516872
121 1 0.46977 0.513815 0.528962
66 2 0.48518 0.523062 0.502582
69 2 0.471309 0.516776 0.512509
128 2 0.483877 0.504301 0.522942
68 2 0.488481 0.507642 0.507309
34 2 0.490728 0.518987 0.518849
127 1 0.478374 0.528777 0.524148
64 2 0.501007 0.507485 0.526217
76 2 0.504317 0.511805 0.511913
108 2 0.511293 0.524379 0.52164
93 2 0.516618 0.50809 0.521722
88 2 0.519056 0.523846 0.507678
96 2 0.527691 0.50642 0.504614
40 2 0.501061 0.527233 0.506734
95 2 0.52955 0.516521 0.520434
41 1 0.539791 0.519418 0.505348
138 1 0.540706 0.504503 0.51541
119 1 0.470452 0.533077 0.507983
82 1 0.486791 0.538241 0.510685
48 2 0.499252 0.544999 0.501877
89 1 0.494288 0.532726 0.528137
98 1 0.505455 0.541848 0.519058
100 1 0.514287 0.539147 0.504894
50 1 0.525414 0.533441 0.51964
36 1 0.532264 0.534886 0.501202
73 2 0.492124 0.492616 0.531493
37 1 0.478519 0.482687 0.537981
123 1 0.489194 0.49033 0.550334
86 1 0.495428 0.477877 0.539638
112 1 0.507394 0.490132 0.542231
42 1 0.52439 0.487137 0.536536
61 1 0.47855 0.501009 0.539931
99 2 0.486093 0.515634 0.533426
38 1 0.497044 0.505783 0.543697
124 1 0.522216 0.521557 0.536719
2 2 0.502182 0.520949 0.535369
133 2 0.514496 0.50443 0.537343
65 1 0.530002 0.506795 0.534339
62 1 0.511651 0.536342 0.53256
ITEM: TIMESTEP
1705000
ITEM: NUMBER OF ATOMS
141
ITEM: BOX BOUNDS pp pp pp
0.0000000000000000e+00 1.4356000000000000e+02
0.0000000000000000e+00 1.4356000000000000e+02
0.0000000000000000e+00 1.4356000000000000e+02
ITEM: ATOMS id type xs ys zs
75 1 0.488975 0.464806 0.465985
47 1 0.50654 0.466617 0.4683
70 1 0.470445 0.49455 0.465837
117 1 0.485213 0.490976 0.457734
45 1 0.47693 0.479678 0.466315
116 2 0.496392 0.47731 0.458897
43 1 0.501167 0.493844 0.454324
59 1 0.511595 0.482569 0.464428
77 1 0.517621 0.49951 0.458654
18 1 0.527975 0.487166 0.467105
23 1 0.473525 0.509948 0.463036
113 1 0.491725 0.509316 0.455669
111 1 0.485287 0.525492 0.467641
27 1 0.500832 0.523313 0.463043
87 1 0.507041 0.512062 0.449667
55 2 0.50386 0.5048 0.467674
28 1 0.515574 0.516348 0.46355
58 2 0.468884 0.469736 0.494886
16 1 0.477772 0.46443 0.480359
130 1 0.496802 0.459719 0.480766
107 1 0.486831 0.4629 0.497408
49 1 0.512722 0.462464 0.482786
17 1 0.501519 0.455884 0.497008
129 2 0.529864 0.465917 0.486935
92 2 0.45814 0.483765 0.49915
25 2 0.45833 0.495868 0.485075
140 1 0.468061 0.483077 0.48096
24 2 0.499153 0.489652 0.471183
6 2 0.473543 0.492277 0.494034
85 2 0.481144 0.490629 0.47691
137 2 0.482589 0.479899 0.49221
110 2 0.491376 0.476891 0.477183
3 2 0.496197 0.487808 0.488047
13 2 0.501494 0.472279 0.492019
29 1 0.523577 0.473228 0.474119
72 2 0.51013 0.480261 0.480644
84 2 0.512936 0.493353 0.492963
8 2 0.525737 0.485532 0.484499
132 2 0.516845 0.495859 0.476251
15 2 0.519127 0.478611 0.497601
94 2 0.535875 0.477892 0.494639
54 2 0.541069 0.495473 0.484851
20 2 0.459779 0.513 0.488151
79 1 0.468691 0.526689 0.493803
97 2 0.46895 0.52245 0.474029
125 2 0.471346 0.503052 0.479598
126 2 0.486502 0.506308 0.471863
5 2 0.487195 0.502047 0.488675
83 2 0.482647 0.518778 0.48408
35 2 0.497021 0.515698 0.494314
10 2 0.473935 0.510055 0.496932
102 2 0.500489 0.499396 0.500625
114 2 0.491864 0.531928 0.487289
26 2 0.49917 0.518675 0.478596
9 2 0.502353 0.50148 0.481998
12 2 0.515187 0.511591 0.479924
33 2 0.51451 0.509532 0.497463
60 2 0.511651 0.524125 0.491399
106 2 0.526341 0.50182 0.48872
91 2 0.528141 0.518624 0.493423
44 1 0.542524 0.500546 0.498653
56 2 0.528179 0.52078 0.47631
11 2 0.529895 0.505261 0.471431
1 1 0.54143 0.513746 0.485336
39 1 0.496613 0.538172 0.472879
134 1 0.477662 0.535535 0.480321
30 1 0.479299 0.541708 0.496618
48 2 0.497545 0.543263 0.501427
90 2 0.511175 0.529454 0.476447
52 2 0.506884 0.54074 0.488228
46 1 0.524437 0.53532 0.489418
19 1 0.460421 0.471191 0.510765
63 1 0.477458 0.463798 0.511967
80 1 0.494706 0.458722 0.512303
21 1 0.486632 0.469572 0.52598
78 2 0.522144 0.461139 0.499821
31 1 0.518735 0.464701 0.518482
81 2 0.508468 0.467723 0.506777
105 1 0.502952 0.464642 0.528015
53 1 0.457894 0.50135 0.502331
32 2 0.461569 0.488564 0.514459
135 1 0.469603 0.496245 0.527689
131 2 0.471555 0.476231 0.52357
57 2 0.487117 0.491097 0.50333
7 2 0.491317 0.475198 0.507599
122 2 0.475214 0.479413 0.506555
118 2 0.484781 0.486565 0.519528
14 2 0.497195 0.495846 0.516925
67 2 0.474767 0.498561 0.510822
22 2 0.499704 0.480455 0.52153
71 2 0.504498 0.484332 0.503927
141 2 0.516618 0.481814 0.516339
104 2 0.52707 0.496011 0.519172
103 2 0.511649 0.493075 0.528677
115 1 0.528706 0.491303 0.502743
109 2 0.513105 0.498939 0.511657
4 2 0.51592 0.474567 0.532635
120 1 0.530702 0.47272 0.510445
51 1 0.530852 0.479183 0.525406
101 1 0.539735 0.486026 0.51224
136 1 0.539759 0.493598 0.527581
74 1 0.459801 0.519148 0.506139
139 1 0.460176 0.5055 0.517825
66 2 0.484438 0.525333 0.500299
69 2 0.475821 0.517081 0.513015
128 2 0.484857 0.505141 0.52392
68 2 0.487272 0.507293 0.503771
34 2 0.49257 0.520355 0.517689
40 2 0.500901 0.528315 0.505659
64 2 0.502629 0.509338 0.526572
76 2 0.504315 0.512229 0.510315
108 2 0.506739 0.524971 0.521487
93 2 0.517567 0.511854 0.521809
88 2 0.517769 0.522277 0.508133
96 2 0.529919 0.507176 0.506759
95 2 0.531454 0.520582 0.516644
41 1 0.542209 0.519895 0.503306
138 1 0.541319 0.505759 0.518046
119 1 0.470499 0.532058 0.509645
127 1 0.477455 0.528567 0.525726
82 1 0.487115 0.536943 0.512393
98 1 0.500977 0.542397 0.51744
100 1 0.514384 0.538398 0.505167
50 1 0.519266 0.535949 0.519263
36 1 0.532535 0.533175 0.50582
73 2 0.494979 0.495451 0.533314
37 1 0.47978 0.484937 0.536439
123 1 0.491124 0.489395 0.548613
86 1 0.495236 0.478197 0.538508
112 1 0.509741 0.490484 0.545628
42 1 0.524765 0.490284 0.536812
121 1 0.470388 0.513667 0.530234
61 1 0.479257 0.501193 0.541891
99 2 0.490691 0.515539 0.534003
38 1 0.496475 0.506301 0.546575
124 1 0.520661 0.522811 0.533995
2 2 0.505737 0.519731 0.538663
133 2 0.514994 0.505368 0.540186
65 1 0.529926 0.506567 0.531832
89 1 0.494083 0.53437 0.530145
62 1 0.509322 0.536709 0.533695
ITEM: TIMESTEP
1710000
ITEM: NUMBER OF ATOMS
141
ITEM: BOX BOUNDS pp pp pp
0.0000000000000000e+00 1.4356000000000000e+02
0.0000000000000000e+00 1.4356000000000000e+02
0.0000000000000000e+00 1.4356000000000000e+02
ITEM: ATOMS id type xs ys zs
75 1 0.488302 0.463113 0.465912
47 1 0.506912 0.467918 0.471278
70 1 0.468269 0.492336 0.467003
117 1 0.487934 0.493202 0.461181
45 1 0.479728 0.478411 0.46833
116 2 0.498251 0.478533 0.461339
43 1 0.503804 0.493323 0.454236
59 1 0.516038 0.482813 0.464841
18 1 0.532095 0.485658 0.469159
23 1 0.475092 0.507859 0.460611
113 1 0.490066 0.509333 0.453617
111 1 0.486058 0.522679 0.467546
77 1 0.519353 0.499209 0.458052
27 1 0.501001 0.522295 0.461588
87 1 0.50759 0.512159 0.451519
55 2 0.506187 0.505959 0.466614
28 1 0.521189 0.517077 0.460678
58 2 0.467588 0.469373 0.495534
16 1 0.479132 0.465277 0.479768
130 1 0.495489 0.457478 0.481755
107 1 0.483315 0.462098 0.496455
13 2 0.499863 0.471349 0.49199
49 1 0.513233 0.462069 0.485672
129 2 0.529766 0.471548 0.493153
17 1 0.501216 0.455489 0.498286
92 2 0.459223 0.483974 0.495796
25 2 0.460074 0.494808 0.48255
140 1 0.467152 0.480206 0.480718
6 2 0.473324 0.492687 0.493327
85 2 0.482966 0.490766 0.478706
137 2 0.481782 0.478236 0.490076
110 2 0.49334 0.474815 0.477536
3 2 0.49551 0.487702 0.489251
24 2 0.501469 0.490304 0.471598
29 1 0.523418 0.472445 0.474588
72 2 0.509385 0.479961 0.481351
84 2 0.513186 0.494057 0.49168
8 2 0.525817 0.484944 0.484304
132 2 0.517478 0.495618 0.47509
15 2 0.516886 0.479184 0.500488
94 2 0.543138 0.484515 0.493429
54 2 0.538335 0.495021 0.480522
44 1 0.540836 0.502419 0.497242
20 2 0.458344 0.511085 0.487183
79 1 0.467967 0.525267 0.490943
97 2 0.470073 0.520134 0.473724
125 2 0.47332 0.505796 0.480907
126 2 0.489841 0.506826 0.470502
5 2 0.48602 0.502964 0.489701
83 2 0.483499 0.519377 0.485148
35 2 0.497663 0.515244 0.493925
10 2 0.472242 0.510196 0.497868
26 2 0.49935 0.518753 0.478926
102 2 0.499726 0.500872 0.499314
9 2 0.50298 0.502073 0.482742
12 2 0.515793 0.515962 0.478636
33 2 0.513408 0.511836 0.495022
106 2 0.525912 0.504413 0.488512
91 2 0.527539 0.520446 0.491483
60 2 0.511446 0.527638 0.489598
90 2 0.51288 0.53145 0.471754
11 2 0.529177 0.507719 0.471699
56 2 0.52907 0.525747 0.474641
1 1 0.541221 0.513852 0.483153
114 2 0.493211 0.532213 0.491816
39 1 0.494694 0.535177 0.475188
134 1 0.477432 0.534401 0.480001
48 2 0.49863 0.543806 0.500794
52 2 0.507387 0.544451 0.484831
46 1 0.524706 0.538837 0.486936
63 1 0.475269 0.467654 0.513707
80 1 0.491433 0.460045 0.514131
78 2 0.51952 0.46234 0.502005
31 1 0.521108 0.464086 0.519764
81 2 0.50587 0.469643 0.510826
105 1 0.505036 0.464474 0.528391
19 1 0.458491 0.471324 0.509631
32 2 0.461764 0.487776 0.515468
131 2 0.467294 0.477426 0.52602
53 1 0.457455 0.500305 0.503557
21 1 0.487191 0.469207 0.528308
57 2 0.486677 0.491726 0.503078
7 2 0.488905 0.47642 0.506872
122 2 0.473974 0.482132 0.504602
118 2 0.481397 0.485434 0.520757
14 2 0.494687 0.494109 0.515804
67 2 0.47401 0.497928 0.513042
22 2 0.498978 0.480731 0.522257
71 2 0.502395 0.485387 0.503771
141 2 0.516353 0.480209 0.517046
104 2 0.526961 0.495162 0.516573
103 2 0.509502 0.493705 0.524178
115 1 0.52776 0.491051 0.500598
109 2 0.513819 0.498274 0.508806
120 1 0.532432 0.475277 0.510497
51 1 0.53043 0.477487 0.52731
101 1 0.5422 0.488802 0.511005
136 1 0.539963 0.492013 0.528812
74 1 0.459452 0.518627 0.505847
139 1 0.45957 0.504711 0.519946
66 2 0.484014 0.523218 0.501942
69 2 0.472841 0.51507 0.51448
128 2 0.484049 0.502127 0.52661
68 2 0.487585 0.507496 0.506436
34 2 0.491182 0.518494 0.518589
127 1 0.479109 0.526451 0.524681
64 2 0.500867 0.507141 0.526595
76 2 0.505117 0.51253 0.509694
108 2 0.508633 0.522628 0.522035
93 2 0.51667 0.508868 0.522232
88 2 0.517389 0.523343 0.50683
96 2 0.527313 0.509215 0.505293
40 2 0.501501 0.528019 0.505639
95 2 0.529629 0.520444 0.517169
41 1 0.541809 0.519559 0.500862
138 1 0.540626 0.505103 0.515776
119 1 0.471274 0.532236 0.509034
30 1 0.479435 0.540425 0.49593
82 1 0.487629 0.538013 0.513926
98 1 0.505029 0.539551 0.517502
100 1 0.514404 0.540549 0.502379
50 1 0.521418 0.534639 0.522219
36 1 0.530642 0.533535 0.502114
135 1 0.467596 0.494779 0.530208
73 2 0.495199 0.492763 0.533745
37 1 0.479129 0.483266 0.537616
123 1 0.492542 0.49043 0.548953
86 1 0.494202 0.475539 0.541435
4 2 0.512556 0.478959 0.533826
112 1 0.508114 0.489527 0.545118
42 1 0.523799 0.491675 0.53458
121 1 0.469853 0.512621 0.532005
61 1 0.479743 0.501537 0.541072
99 2 0.488381 0.515748 0.534764
38 1 0.497207 0.505432 0.545285
124 1 0.523762 0.518942 0.534223
2 2 0.504713 0.519347 0.53825
133 2 0.512147 0.504707 0.537733
65 1 0.532722 0.507081 0.529646
89 1 0.495068 0.532532 0.530673
62 1 0.510738 0.53544 0.535452
ITEM: TIMESTEP
1715000
ITEM: NUMBER OF ATOMS
141
ITEM: BOX BOUNDS pp pp pp
0.0000000000000000e+00 1.4356000000000000e+02
0.0000000000000000e+00 1.4356000000000000e+02
0.0000000000000000e+00 1.4356000000000000e+02
ITEM: ATOMS id type xs ys zs
75 1 0.490277 0.465214 0.460833
117 1 0.486881 0.492413 0.459985
45 1 0.480799 0.477682 0.467195
70 1 0.467496 0.49142 0.469306
116 2 0.498099 0.48012 0.461575
43 1 0.502262 0.496574 0.455461
59 1 0.514714 0.484109 0.46346
77 1 0.519546 0.500884 0.459911
18 1 0.530786 0.489096 0.466351
23 1 0.475697 0.505473 0.465841
113 1 0.490754 0.507473 0.45722
111 1 0.483673 0.522134 0.469269
27 1 0.499832 0.521939 0.462747
87 1 0.508075 0.513234 0.451996
55 2 0.507088 0.50961 0.468124
28 1 0.520604 0.521452 0.461344
16 1 0.480216 0.465256 0.477698
130 1 0.494831 0.459984 0.48114
107 1 0.484982 0.46059 0.494193
47 1 0.509342 0.468101 0.467251
49 1 0.513413 0.464281 0.484782
129 2 0.529742 0.466655 0.490414
58 2 0.468741 0.467593 0.494852
92 2 0.455902 0.48445 0.497926
25 2 0.459969 0.494371 0.485542
140 1 0.467851 0.479538 0.482672
6 2 0.472719 0.48995 0.495337
85 2 0.482778 0.490476 0.478513
137 2 0.482754 0.477137 0.491744
110 2 0.493501 0.477042 0.477353
3 2 0.494947 0.488605 0.488568
13 2 0.498641 0.471192 0.493834
24 2 0.501074 0.494095 0.471601
29 1 0.526525 0.473707 0.474388
72 2 0.509872 0.480587 0.48061
84 2 0.511217 0.491606 0.491782
8 2 0.52673 0.486025 0.485774
132 2 0.515417 0.495598 0.475273
15 2 0.516295 0.476212 0.496358
94 2 0.539893 0.479305 0.495328
54 2 0.538363 0.494297 0.480237
44 1 0.543035 0.497576 0.496337
20 2 0.460203 0.513879 0.48766
79 1 0.466038 0.527215 0.493016
97 2 0.469368 0.517982 0.474581
5 2 0.484388 0.502242 0.491944
126 2 0.491046 0.506883 0.475897
125 2 0.472815 0.502412 0.481571
83 2 0.481319 0.518304 0.486391
35 2 0.494729 0.517 0.496529
102 2 0.50001 0.49956 0.499063
26 2 0.500025 0.520567 0.481226
9 2 0.503066 0.505381 0.483307
12 2 0.517868 0.5158 0.479658
33 2 0.513704 0.508918 0.495699
106 2 0.525315 0.501289 0.489704
91 2 0.527388 0.518014 0.492954
60 2 0.511792 0.522928 0.493336
56 2 0.531066 0.523772 0.477539
11 2 0.529003 0.505816 0.472405
1 1 0.542287 0.510318 0.48309
114 2 0.488238 0.531417 0.488718
39 1 0.495948 0.535672 0.473029
134 1 0.474675 0.534729 0.478334
48 2 0.494442 0.541216 0.500493
90 2 0.512279 0.531307 0.474456
52 2 0.505287 0.538987 0.488537
46 1 0.522623 0.535038 0.488377
19 1 0.458495 0.473528 0.511959
63 1 0.477158 0.463937 0.513313
80 1 0.492648 0.458067 0.510705
105 1 0.504501 0.465706 0.528392
21 1 0.485903 0.470205 0.526404
17 1 0.502721 0.455506 0.495539
78 2 0.517306 0.459052 0.501956
31 1 0.520859 0.466058 0.522447
81 2 0.506196 0.469135 0.510163
32 2 0.457326 0.491153 0.517761
135 1 0.469783 0.495739 0.529052
131 2 0.468916 0.478822 0.524544
57 2 0.487298 0.490135 0.502043
7 2 0.488652 0.474064 0.508271
122 2 0.474019 0.479965 0.508527
118 2 0.483214 0.4865 0.519698
14 2 0.495069 0.496379 0.513865
67 2 0.472332 0.498056 0.511827
22 2 0.499491 0.482074 0.520996
71 2 0.5041 0.484654 0.503655
141 2 0.515801 0.48154 0.514058
103 2 0.509612 0.495346 0.524769
115 1 0.527381 0.486902 0.503904
104 2 0.528732 0.497566 0.517273
109 2 0.516139 0.49796 0.508013
120 1 0.52985 0.470574 0.508536
51 1 0.529319 0.481528 0.523529
101 1 0.54474 0.488501 0.510863
136 1 0.541722 0.492381 0.526405
53 1 0.457536 0.499615 0.502441
74 1 0.459794 0.518447 0.50545
139 1 0.459096 0.506959 0.517778
10 2 0.47084 0.50908 0.497459
66 2 0.481497 0.523933 0.503553
69 2 0.473666 0.514095 0.514942
128 2 0.484669 0.504727 0.523107
68 2 0.486349 0.508242 0.507064
34 2 0.490336 0.52204 0.518018
127 1 0.476938 0.528396 0.525602
40 2 0.501088 0.527403 0.5047
76 2 0.502018 0.511267 0.509718
108 2 0.50825 0.524625 0.51974
93 2 0.517478 0.510958 0.521915
88 2 0.517475 0.518108 0.508154
96 2 0.531677 0.50649 0.503967
64 2 0.500449 0.509087 0.526283
95 2 0.531606 0.518048 0.515973
41 1 0.543474 0.520078 0.502017
138 1 0.544568 0.504446 0.515545
65 1 0.535623 0.508265 0.53039
119 1 0.46792 0.532628 0.512751
30 1 0.476841 0.539816 0.497858
82 1 0.485137 0.538536 0.512727
89 1 0.494066 0.534221 0.529984
98 1 0.50094 0.541595 0.517019
100 1 0.515474 0.538143 0.503498
50 1 0.522919 0.532165 0.518869
36 1 0.530016 0.529654 0.504183
73 2 0.494163 0.49444 0.530278
37 1 0.480921 0.484895 0.53601
123 1 0.492223 0.491002 0.548636
86 1 0.496437 0.478463 0.536679
4 2 0.513292 0.478472 0.532189
112 1 0.508509 0.49265 0.542341
42 1 0.525358 0.493601 0.535748
121 1 0.471781 0.514367 0.53352
61 1 0.482516 0.502799 0.541657
99 2 0.488971 0.518803 0.534418
38 1 0.49841 0.507876 0.545949
124 1 0.524718 0.522113 0.532287
2 2 0.505691 0.521167 0.538524
133 2 0.515327 0.507537 0.538418
62 1 0.512961 0.535584 0.532706
ITEM: TIMESTEP
1720000
ITEM: NUMBER OF ATOMS
141
ITEM: BOX BOUNDS pp pp pp
0.0000000000000000e+00 1.4356000000000000e+02
0.0000000000000000e+00 1.4356000000000000e+02
0.0000000000000000e+00 1.4356000000000000e+02
ITEM: ATOMS id type xs ys zs
75 1 0.489533 0.463176 0.466918
47 1 0.507252 0.467986 0.469878
70 1 0.468148 0.491281 0.470825
117 1 0.485018 0.491096 0.463283
45 1 0.47777 0.474179 0.466888
116 2 0.496019 0.478374 0.460728
43 1 0.500279 0.493493 0.453847
59 1 0.514006 0.484566 0.462928
77 1 0.518376 0.499884 0.457352
18 1 0.530116 0.485996 0.465925
23 1 0.473534 0.509026 0.462558
113 1 0.492997 0.507789 0.456977
111 1 0.483605 0.521227 0.468142
27 1 0.500905 0.523314 0.462249
87 1 0.507241 0.509146 0.449865
55 2 0.505847 0.50554 0.466688
28 1 0.519958 0.517213 0.463211
58 2 0.470959 0.468434 0.496118
16 1 0.47769 0.462775 0.479799
130 1 0.496606 0.459002 0.482152
107 1 0.485655 0.460302 0.497974
49 1 0.512802 0.464463 0.486122
17 1 0.502836 0.45566 0.498185
129 2 0.530097 0.468949 0.489477
92 2 0.458206 0.484637 0.498784
25 2 0.456657 0.497658 0.483898
140 1 0.469308 0.479773 0.481615
6 2 0.471544 0.493915 0.49389
85 2 0.481938 0.490627 0.480313
137 2 0.483355 0.478787 0.490706
110 2 0.494507 0.476625 0.477509
3 2 0.496785 0.488249 0.488106
24 2 0.499775 0.491183 0.471188
13 2 0.498703 0.47318 0.493428
29 1 0.524521 0.470529 0.474145
72 2 0.509966 0.480414 0.480887
84 2 0.514225 0.493085 0.492009
8 2 0.527542 0.483236 0.482966
132 2 0.518552 0.49703 0.475395
15 2 0.518264 0.477741 0.497792
94 2 0.539359 0.48276 0.494202
54 2 0.535141 0.49563 0.479776
20 2 0.458216 0.514452 0.486396
79 1 0.46847 0.528185 0.494962
97 2 0.467438 0.522362 0.475445
5 2 0.486162 0.502033 0.490213
126 2 0.489725 0.503498 0.47235
125 2 0.472634 0.506017 0.479579
83 2 0.483722 0.51782 0.484428
35 2 0.496331 0.514791 0.494918
10 2 0.470678 0.511014 0.496779
26 2 0.49937 0.518288 0.477898
9 2 0.50413 0.502344 0.48418
12 2 0.515392 0.513641 0.479723
33 2 0.512111 0.508554 0.496333
106 2 0.52603 0.504387 0.489522
91 2 0.525503 0.521501 0.494158
60 2 0.509159 0.525402 0.492844
56 2 0.530219 0.523631 0.477809
102 2 0.500152 0.499153 0.49957
44 1 0.540234 0.501127 0.498683
11 2 0.531502 0.507945 0.470915
1 1 0.54207 0.513837 0.485036
114 2 0.493431 0.530369 0.489595
39 1 0.493418 0.534347 0.47327
134 1 0.477535 0.534801 0.482769
30 1 0.479285 0.539741 0.498844
90 2 0.510994 0.530067 0.475046
52 2 0.506111 0.5408 0.487411
46 1 0.521937 0.536183 0.488819
63 1 0.474869 0.462644 0.511301
80 1 0.493159 0.460103 0.511955
21 1 0.486541 0.470669 0.526203
105 1 0.502238 0.463872 0.52584
78 2 0.520796 0.459845 0.50087
31 1 0.52244 0.465356 0.519291
81 2 0.50848 0.469193 0.510761
19 1 0.460096 0.471342 0.509827
32 2 0.460234 0.489465 0.516527
135 1 0.472512 0.49621 0.528659
131 2 0.471334 0.478214 0.523286
57 2 0.48655 0.490288 0.501852
7 2 0.487875 0.474615 0.508754
122 2 0.473527 0.481874 0.505836
118 2 0.48427 0.487636 0.518016
14 2 0.497293 0.496604 0.516246
67 2 0.472125 0.499569 0.511491
22 2 0.499236 0.480319 0.520789
115 1 0.527567 0.489936 0.502088
71 2 0.503997 0.483368 0.5048
141 2 0.517622 0.482386 0.514102
103 2 0.509791 0.493096 0.526035
109 2 0.514046 0.498023 0.509582
104 2 0.527055 0.496655 0.517557
120 1 0.532024 0.472901 0.507187
51 1 0.531056 0.480921 0.522557
101 1 0.541533 0.489167 0.510538
136 1 0.540649 0.492245 0.527564
53 1 0.457442 0.500108 0.501171
74 1 0.457858 0.518964 0.505331
139 1 0.460046 0.506882 0.521156
66 2 0.483744 0.523593 0.500862
69 2 0.473247 0.517335 0.513233
128 2 0.483958 0.505953 0.522377
68 2 0.487506 0.507744 0.507126
34 2 0.490303 0.519179 0.51728
127 1 0.479224 0.529941 0.527561
64 2 0.502483 0.507688 0.526924
40 2 0.501281 0.52723 0.507567
76 2 0.505469 0.51157 0.509689
108 2 0.508525 0.52415 0.523328
93 2 0.518603 0.510547 0.520458
88 2 0.517819 0.525193 0.510118
96 2 0.526028 0.508972 0.50598
95 2 0.530987 0.519306 0.515768
41 1 0.541105 0.517725 0.501909
138 1 0.542326 0.505416 0.515019
65 1 0.532148 0.507406 0.531516
119 1 0.470776 0.533774 0.51148
48 2 0.495756 0.541754 0.501932
82 1 0.486998 0.538061 0.51519
98 1 0.504277 0.541396 0.51833
100 1 0.515113 0.540907 0.503458
50 1 0.523989 0.536521 0.51929
36 1 0.533273 0.534304 0.503408
73 2 0.491317 0.491818 0.531156
37 1 0.47857 0.483758 0.537564
123 1 0.490061 0.488937 0.546878
86 1 0.496861 0.475949 0.537646
61 1 0.481626 0.502925 0.542101
4 2 0.513479 0.477766 0.532057
112 1 0.507195 0.48791 0.543955
42 1 0.525954 0.490432 0.536185
121 1 0.472711 0.515705 0.530815
99 2 0.490582 0.517496 0.534502
38 1 0.497111 0.505047 0.54266
124 1 0.522849 0.522037 0.532565
2 2 0.504998 0.521639 0.539376
133 2 0.513865 0.504269 0.53794
89 1 0.494776 0.533314 0.527384
62 1 0.510957 0.53566 0.533067
ITEM: TIMESTEP
1725000
ITEM: NUMBER OF ATOMS
141
ITEM: BOX BOUNDS pp pp pp
0.0000000000000000e+00 1.4356000000000000e+02
0.0000000000000000e+00 1.4356000000000000e+02
0.0000000000000000e+00 1.4356000000000000e+02
ITEM: ATOMS id type xs ys zs
75 1 0.48951 0.464284 0.466062
70 1 0.46784 0.492804 0.471369
117 1 0.482252 0.492102 0.462017
116 2 0.493981 0.48093 0.463737
45 1 0.474125 0.47491 0.470217
47 1 0.505974 0.468312 0.468461
43 1 0.50141 0.494719 0.454733
59 1 0.513681 0.482466 0.462366
77 1 0.519386 0.499851 0.459339
18 1 0.529354 0.48958 0.4679
23 1 0.472026 0.508126 0.463963
113 1 0.489466 0.507387 0.455556
111 1 0.486457 0.520221 0.466082
27 1 0.503748 0.525295 0.461025
87 1 0.504758 0.513093 0.449005
55 2 0.50396 0.508541 0.465628
28 1 0.519251 0.517226 0.462365
39 1 0.494727 0.535467 0.471644
58 2 0.467543 0.466073 0.495071
16 1 0.479507 0.463388 0.479401
130 1 0.495307 0.457451 0.48037
107 1 0.485509 0.460185 0.496884
13 2 0.49984 0.474134 0.493869
49 1 0.51263 0.464559 0.485671
17 1 0.502935 0.455761 0.49661
92 2 0.459586 0.4817 0.498391
25 2 0.457365 0.495522 0.487316
140 1 0.466071 0.480668 0.48217
6 2 0.472827 0.491811 0.492109
85 2 0.483961 0.488861 0.477447
137 2 0.483009 0.476131 0.492437
110 2 0.493033 0.474859 0.479261
3 2 0.497097 0.488416 0.48768
24 2 0.499047 0.494224 0.472361
29 1 0.523673 0.47299 0.472803
129 2 0.528746 0.469878 0.488515
72 2 0.509311 0.480277 0.480265
84 2 0.51313 0.49358 0.492088
8 2 0.524506 0.485988 0.484756
132 2 0.514598 0.496132 0.475789
15 2 0.516099 0.478244 0.497095
94 2 0.538429 0.482796 0.491451
54 2 0.53908 0.497466 0.480872
20 2 0.459306 0.513995 0.48592
97 2 0.469533 0.520335 0.4759
79 1 0.470243 0.528605 0.493026
5 2 0.486313 0.501327 0.489547
126 2 0.486113 0.50576 0.473671
125 2 0.472265 0.504373 0.481256
83 2 0.48229 0.518791 0.485177
35 2 0.496493 0.514731 0.494934
10 2 0.471808 0.508618 0.496267
26 2 0.498463 0.519058 0.479633
102 2 0.499176 0.499853 0.499729
9 2 0.501824 0.503986 0.484043
12 2 0.515415 0.515071 0.480979
33 2 0.513166 0.509962 0.497601
106 2 0.526063 0.503142 0.490305
91 2 0.525584 0.519262 0.492396
60 2 0.510112 0.525621 0.495746
56 2 0.528946 0.523258 0.476559
11 2 0.529226 0.506359 0.47219
44 1 0.540854 0.499327 0.498243
1 1 0.54175 0.514066 0.486861
114 2 0.493037 0.531075 0.490304
134 1 0.480045 0.535905 0.479324
30 1 0.479506 0.541018 0.495188
90 2 0.514784 0.530772 0.472279
52 2 0.507753 0.537145 0.484631
46 1 0.524385 0.536953 0.48774
19 1 0.457618 0.469208 0.511234
63 1 0.474955 0.462359 0.511382
80 1 0.492638 0.457166 0.511446
21 1 0.486668 0.468667 0.523076
78 2 0.521655 0.462716 0.501727
105 1 0.502683 0.463209 0.525478
31 1 0.518536 0.465607 0.521744
81 2 0.506523 0.468674 0.508276
32 2 0.461398 0.486756 0.514335
131 2 0.470304 0.475126 0.521719
135 1 0.470484 0.493324 0.53015
57 2 0.4868 0.489507 0.501332
7 2 0.491042 0.47536 0.507208
122 2 0.474343 0.479822 0.505795
118 2 0.483712 0.487952 0.517437
14 2 0.497361 0.496417 0.515617
22 2 0.498581 0.480583 0.522812
115 1 0.526449 0.491054 0.502391
71 2 0.503636 0.484903 0.506306
141 2 0.517234 0.483481 0.514988
103 2 0.510229 0.493018 0.526662
109 2 0.512599 0.498109 0.509121
104 2 0.525784 0.4965 0.518958
120 1 0.53046 0.473757 0.509855
51 1 0.531154 0.478863 0.524903
101 1 0.540133 0.488421 0.511501
53 1 0.454299 0.500005 0.505035
74 1 0.460716 0.519844 0.504051
139 1 0.460366 0.506708 0.520127
67 2 0.471473 0.498748 0.509099
66 2 0.483363 0.522292 0.502609
69 2 0.473312 0.515355 0.514168
128 2 0.48231 0.503218 0.522557
68 2 0.486489 0.506362 0.506724
34 2 0.49021 0.517434 0.519209
127 1 0.479388 0.527264 0.526595
40 2 0.497828 0.529093 0.508702
64 2 0.501707 0.508389 0.527587
76 2 0.503413 0.512288 0.510498
108 2 0.507292 0.524689 0.521976
93 2 0.516542 0.512029 0.520168
88 2 0.517788 0.522332 0.508428
96 2 0.527605 0.507506 0.506641
95 2 0.531389 0.517973 0.517853
41 1 0.542453 0.517284 0.502385
138 1 0.542152 0.505142 0.514497
119 1 0.473333 0.534011 0.511178
82 1 0.490532 0.541977 0.513074
48 2 0.502258 0.543238 0.499778
98 1 0.509735 0.540368 0.515273
100 1 0.518321 0.538829 0.502457
50 1 0.52541 0.534993 0.52164
36 1 0.532859 0.53053 0.505046
73 2 0.493229 0.494364 0.532099
37 1 0.482797 0.48124 0.53485
123 1 0.490169 0.491807 0.548303
86 1 0.499901 0.478665 0.539428
4 2 0.51571 0.477714 0.532836
112 1 0.50881 0.491066 0.544942
42 1 0.525165 0.492362 0.536717
136 1 0.540444 0.492334 0.527575
121 1 0.470353 0.514627 0.532774
61 1 0.48064 0.502784 0.540804
99 2 0.490561 0.51859 0.53569
38 1 0.499517 0.504743 0.545002
124 1 0.522453 0.52437 0.531873
2 2 0.50715 0.520697 0.538469
133 2 0.515977 0.505884 0.536056
65 1 0.534934 0.508171 0.532818
89 1 0.496204 0.535226 0.527219
62 1 0.510092 0.538123 0.533577
ITEM: TIMESTEP
1730000
ITEM: NUMBER OF ATOMS
141
ITEM: BOX BOUNDS pp pp pp
0.0000000000000000e+00 1.4356000000000000e+02
0.0000000000000000e+00 1.4356000000000000e+02
0.0000000000000000e+00 1.4356000000000000e+02
ITEM: ATOMS id type xs ys zs
75 1 0.489035 0.461493 0.469769
47 1 0.50475 0.465483 0.469945
70 1 0.468664 0.494676 0.468397
117 1 0.483322 0.495492 0.46081
116 2 0.496496 0.479413 0.460255
45 1 0.478032 0.475501 0.466027
43 1 0.501946 0.496694 0.455645
59 1 0.512865 0.480123 0.46424
77 1 0.516842 0.500256 0.46002
18 1 0.527901 0.489129 0.46761
23 1 0.473737 0.510175 0.462703
113 1 0.492061 0.510839 0.45655
111 1 0.486157 0.524286 0.465967
27 1 0.505098 0.526463 0.459265
87 1 0.5113 0.514272 0.449425
55 2 0.504538 0.509984 0.467788
28 1 0.518779 0.51986 0.463694
58 2 0.468962 0.469792 0.49537
16 1 0.476583 0.463574 0.482349
130 1 0.495945 0.459992 0.483655
107 1 0.486938 0.459571 0.49809
49 1 0.514925 0.459731 0.485404
17 1 0.503498 0.45515 0.5001
129 2 0.529498 0.469744 0.49022
25 2 0.4606 0.495899 0.484286
140 1 0.469997 0.480628 0.481913
92 2 0.459494 0.483109 0.497235
13 2 0.500321 0.47036 0.495703
6 2 0.473534 0.493066 0.495312
85 2 0.481771 0.491458 0.478825
137 2 0.484607 0.475995 0.492035
110 2 0.490897 0.476037 0.476064
3 2 0.496665 0.488319 0.488741
24 2 0.49745 0.492122 0.472572
29 1 0.521462 0.470001 0.473952
72 2 0.508289 0.478442 0.482232
84 2 0.512728 0.49211 0.491711
8 2 0.52506 0.482481 0.485012
132 2 0.513751 0.495437 0.475398
15 2 0.515652 0.475049 0.497688
94 2 0.539442 0.483244 0.493411