ITEM: TIMESTEP
11050000
ITEM: NUMBER OF ATOMS
141
ITEM: BOX BOUNDS pp pp pp
0.0000000000000000e+00 1.4356000000000000e+02
0.0000000000000000e+00 1.4356000000000000e+02
0.0000000000000000e+00 1.4356000000000000e+02
ITEM: ATOMS id type xs ys zs
105 1 0.476186 0.467807 0.470329
140 1 0.507433 0.462361 0.467292
113 1 0.492757 0.472162 0.461742
55 2 0.497655 0.48872 0.464267
30 1 0.481443 0.487572 0.462841
65 1 0.472967 0.499463 0.469441
130 1 0.508782 0.476683 0.456098
135 1 0.522161 0.475634 0.469908
8 2 0.514469 0.490251 0.466963
23 1 0.506902 0.496637 0.453598
27 1 0.531031 0.488995 0.466476
127 1 0.486616 0.502982 0.455771
77 1 0.496496 0.517567 0.459527
112 1 0.52145 0.503693 0.457719
63 1 0.513542 0.520508 0.46274
5 2 0.50243 0.505045 0.469179
1 1 0.465682 0.469992 0.48788
36 1 0.49085 0.459906 0.473645
123 1 0.489254 0.452437 0.488251
110 2 0.497264 0.468683 0.487823
9 2 0.481214 0.468126 0.487921
74 1 0.50644 0.455841 0.48618
47 1 0.522426 0.456687 0.478022
95 2 0.517067 0.469828 0.485577
139 1 0.532983 0.469969 0.485695
44 1 0.470445 0.483145 0.475898
66 2 0.462808 0.493084 0.486419
28 1 0.456608 0.484365 0.498062
108 2 0.488273 0.497576 0.474221
106 2 0.482628 0.48977 0.489259
68 2 0.488167 0.479583 0.47608
104 2 0.49068 0.479712 0.498646
3 2 0.50069 0.489525 0.482341
72 2 0.504884 0.476815 0.472936
40 2 0.525713 0.481386 0.493971
92 2 0.506254 0.476121 0.498867
83 2 0.516433 0.485544 0.482149
94 2 0.509471 0.491411 0.496423
78 2 0.524511 0.497904 0.484695
24 2 0.538158 0.490409 0.481862
41 1 0.469751 0.529157 0.478423
31 1 0.462929 0.512126 0.478413
137 2 0.460196 0.50596 0.49529
81 2 0.469999 0.521871 0.493708
111 1 0.482336 0.513089 0.472392
71 2 0.488161 0.528336 0.473227
125 2 0.492086 0.504735 0.48865
114 2 0.474663 0.503835 0.485028
109 2 0.485474 0.52071 0.487285
73 2 0.499668 0.517938 0.477703
19 1 0.528616 0.5209 0.47282
116 2 0.519571 0.507271 0.499962
20 2 0.503847 0.520574 0.492683
88 2 0.515241 0.524519 0.481181
64 2 0.518491 0.506476 0.472899
129 2 0.510527 0.50447 0.485917
58 2 0.526274 0.514513 0.487242
75 1 0.534722 0.504343 0.470727
101 1 0.541832 0.507993 0.486031
21 1 0.542225 0.524337 0.48975
70 1 0.468435 0.538666 0.498005
42 1 0.482628 0.540614 0.48849
126 2 0.498212 0.534104 0.482744
50 1 0.512186 0.537767 0.471768
39 1 0.526573 0.534899 0.481692
133 2 0.513025 0.535668 0.491926
120 1 0.502502 0.547582 0.494438
124 1 0.524951 0.542879 0.498702
96 2 0.491298 0.461521 0.500361
37 1 0.473844 0.460523 0.500762
107 1 0.480908 0.463856 0.516124
119 1 0.498273 0.457189 0.519118
16 1 0.507811 0.46074 0.503695
134 1 0.527224 0.4656 0.501007
54 2 0.512545 0.466811 0.517683
115 1 0.463004 0.496309 0.526847
2 2 0.466728 0.483659 0.514015
138 1 0.453897 0.498164 0.508292
122 2 0.485907 0.497068 0.50355
51 1 0.473232 0.474547 0.526215
26 2 0.474168 0.478102 0.501163
12 2 0.483393 0.484116 0.515076
76 2 0.495283 0.485269 0.525621
33 2 0.470697 0.495012 0.502695
118 2 0.494732 0.474016 0.513363
97 2 0.500284 0.487918 0.508902
90 2 0.513594 0.483266 0.523809
56 2 0.519391 0.481181 0.507825
99 2 0.515447 0.49541 0.511699
132 2 0.521473 0.49838 0.527782
18 1 0.531771 0.472925 0.51782
60 2 0.531242 0.489011 0.516175
22 2 0.531068 0.496127 0.502716
61 1 0.541061 0.481671 0.500778
79 1 0.54734 0.496252 0.505577
59 1 0.460264 0.523036 0.505419
11 2 0.468311 0.523045 0.529322
93 2 0.465173 0.511286 0.51709
91 2 0.475051 0.511155 0.504566
34 2 0.477802 0.500134 0.517261
7 2 0.494038 0.503956 0.518412
84 2 0.47078 0.528692 0.516497
141 2 0.499734 0.517571 0.526926
67 2 0.490863 0.513509 0.501857
25 2 0.481019 0.515919 0.517589
14 2 0.493726 0.528348 0.518606
69 2 0.523168 0.523951 0.500551
52 2 0.503823 0.505044 0.501821
57 2 0.508357 0.521692 0.509027
13 2 0.524739 0.508531 0.515777
17 1 0.52433 0.525396 0.516772
6 2 0.509653 0.508859 0.516549
136 1 0.517244 0.51839 0.528403
10 2 0.536508 0.510772 0.501749
62 1 0.540881 0.502841 0.522127
102 2 0.483044 0.530889 0.506174
38 1 0.487893 0.547531 0.503741
15 2 0.497368 0.53286 0.501462
85 2 0.497611 0.542976 0.517957
82 1 0.474868 0.546778 0.514799
43 1 0.479424 0.536618 0.528965
46 1 0.508785 0.531781 0.524525
131 2 0.513142 0.537218 0.50912
121 1 0.490783 0.466957 0.530644
4 2 0.476886 0.490146 0.530576
98 1 0.478536 0.482586 0.546788
103 2 0.4938 0.484089 0.540927
89 1 0.525928 0.477145 0.531761
45 1 0.508855 0.471187 0.534043
32 2 0.512882 0.489305 0.541034
100 1 0.501149 0.498632 0.54771
87 1 0.533562 0.492507 0.536028
48 2 0.488357 0.501737 0.533529
117 1 0.473111 0.507437 0.531466
80 1 0.496822 0.513768 0.546188
128 2 0.485396 0.520854 0.532087
35 2 0.505771 0.501709 0.530714
53 1 0.516893 0.506238 0.541501
29 1 0.509386 0.52199 0.541689
86 1 0.531844 0.513935 0.531838
49 1 0.495392 0.537436 0.534061
ITEM: TIMESTEP
11055000
ITEM: NUMBER OF ATOMS
141
ITEM: BOX BOUNDS pp pp pp
0.0000000000000000e+00 1.4356000000000000e+02
0.0000000000000000e+00 1.4356000000000000e+02
0.0000000000000000e+00 1.4356000000000000e+02
ITEM: ATOMS id type xs ys zs
105 1 0.464883 0.468817 0.471646
55 2 0.49797 0.492126 0.46133
30 1 0.479549 0.484155 0.462814
113 1 0.492485 0.477547 0.45718
130 1 0.510143 0.480417 0.459104
23 1 0.515814 0.498578 0.458681
112 1 0.528037 0.488715 0.464122
65 1 0.471289 0.500421 0.467401
127 1 0.485256 0.500092 0.459071
111 1 0.486093 0.515837 0.454902
77 1 0.502184 0.507178 0.453656
63 1 0.521125 0.519427 0.466103
71 2 0.499856 0.521354 0.462607
36 1 0.48267 0.468731 0.465593
37 1 0.47276 0.464723 0.508399
123 1 0.493019 0.461294 0.479349
110 2 0.490989 0.472408 0.491112
16 1 0.483523 0.458397 0.495608
140 1 0.503796 0.46659 0.467575
135 1 0.513894 0.456954 0.489287
74 1 0.525392 0.4578 0.50111
139 1 0.526341 0.468603 0.487928
44 1 0.46414 0.485377 0.4732
1 1 0.463972 0.476571 0.487741
28 1 0.454911 0.487051 0.496803
33 2 0.471782 0.489723 0.494778
9 2 0.476559 0.466661 0.484383
108 2 0.487438 0.493387 0.473827
106 2 0.479216 0.482234 0.483199
68 2 0.495061 0.47795 0.474203
3 2 0.499458 0.48699 0.487043
26 2 0.478213 0.477319 0.499055
122 2 0.487174 0.494376 0.493186
8 2 0.519187 0.475527 0.473402
72 2 0.509951 0.488715 0.472748
47 1 0.520386 0.47259 0.503595
95 2 0.509411 0.471767 0.485423
83 2 0.523291 0.487647 0.485502
64 2 0.523282 0.501201 0.475071
129 2 0.512217 0.500937 0.485505
27 1 0.539613 0.497016 0.483401
40 2 0.538888 0.482503 0.495641
61 1 0.536038 0.480095 0.478364
18 1 0.541707 0.466997 0.497518
66 2 0.461471 0.49928 0.482073
31 1 0.473972 0.515352 0.471626
137 2 0.461819 0.502819 0.498207
81 2 0.46576 0.514537 0.486838
125 2 0.495809 0.506138 0.485416
114 2 0.478205 0.503595 0.482698
109 2 0.48265 0.517322 0.487229
73 2 0.489589 0.511952 0.472483
15 2 0.493398 0.526411 0.496272
91 2 0.475433 0.508185 0.499439
88 2 0.497831 0.523369 0.478579
19 1 0.515184 0.533477 0.473924
5 2 0.50648 0.509385 0.470752
20 2 0.506168 0.514677 0.49412
58 2 0.517297 0.517285 0.482433
133 2 0.521023 0.51775 0.497792
78 2 0.528227 0.505683 0.491525
131 2 0.508853 0.531114 0.491511
24 2 0.535846 0.522897 0.500405
75 1 0.533705 0.516524 0.477266
101 1 0.527131 0.530936 0.484154
41 1 0.468339 0.527816 0.480223
126 2 0.486431 0.533946 0.484587
50 1 0.482665 0.530548 0.470555
38 1 0.495737 0.543561 0.49754
39 1 0.500647 0.540382 0.480325
124 1 0.516004 0.546237 0.490213
107 1 0.471008 0.471508 0.523067
96 2 0.493292 0.46611 0.50973
92 2 0.505263 0.466396 0.499874
134 1 0.527379 0.461678 0.516594
54 2 0.50992 0.460026 0.5154
89 1 0.518645 0.468748 0.528312
115 1 0.454526 0.494199 0.514276
2 2 0.46386 0.480099 0.510524
93 2 0.466665 0.503933 0.527296
51 1 0.468383 0.486632 0.528525
119 1 0.489078 0.466877 0.525127
104 2 0.495346 0.483185 0.504395
12 2 0.483268 0.479717 0.514616
118 2 0.495421 0.485488 0.523108
34 2 0.470705 0.497855 0.512239
4 2 0.481602 0.496694 0.52586
52 2 0.501943 0.49742 0.500524
94 2 0.512775 0.485906 0.496542
97 2 0.510599 0.491451 0.514182
90 2 0.505757 0.475291 0.51692
35 2 0.523393 0.481761 0.51763
56 2 0.526653 0.490134 0.502942
60 2 0.535318 0.474699 0.51158
22 2 0.544989 0.493251 0.508348
132 2 0.543013 0.493691 0.527611
138 1 0.461401 0.522234 0.49986
59 1 0.468982 0.534329 0.513251
70 1 0.460058 0.512107 0.512281
7 2 0.48658 0.496654 0.509858
84 2 0.47922 0.511056 0.518877
67 2 0.490895 0.510383 0.502021
14 2 0.494265 0.521637 0.515401
102 2 0.479727 0.522549 0.506308
11 2 0.480825 0.528365 0.522801
99 2 0.528099 0.498103 0.518418
116 2 0.516996 0.505101 0.505905
141 2 0.507132 0.519658 0.525549
57 2 0.509445 0.523082 0.509022
6 2 0.502824 0.507855 0.513339
136 1 0.521798 0.51381 0.518984
48 2 0.510717 0.502167 0.526472
21 1 0.53294 0.528317 0.51651
62 1 0.529873 0.524989 0.532039
13 2 0.536269 0.509458 0.525095
79 1 0.548098 0.506088 0.494455
10 2 0.535134 0.508016 0.506718
42 1 0.472686 0.532379 0.494429
85 2 0.50085 0.537692 0.513463
82 1 0.484939 0.539395 0.50721
43 1 0.490825 0.541022 0.527217
69 2 0.522387 0.53538 0.502282
120 1 0.509237 0.54751 0.503935
17 1 0.517565 0.536012 0.518988
45 1 0.499875 0.475637 0.535176
76 2 0.499561 0.494465 0.536279
121 1 0.483998 0.481583 0.53484
32 2 0.512204 0.4849 0.529818
87 1 0.536379 0.475862 0.529068
86 1 0.528113 0.491078 0.533114
117 1 0.465023 0.521157 0.527373
25 2 0.495006 0.507324 0.527765
103 2 0.476794 0.494971 0.5418
98 1 0.477831 0.514281 0.535231
128 2 0.49284 0.522592 0.534421
100 1 0.489349 0.506084 0.5455
53 1 0.515026 0.491667 0.545181
80 1 0.505421 0.511711 0.539411
49 1 0.522545 0.507316 0.535587
29 1 0.516191 0.523334 0.541744
46 1 0.505585 0.535267 0.531013
ITEM: TIMESTEP
11060000
ITEM: NUMBER OF ATOMS
141
ITEM: BOX BOUNDS pp pp pp
0.0000000000000000e+00 1.4356000000000000e+02
0.0000000000000000e+00 1.4356000000000000e+02
0.0000000000000000e+00 1.4356000000000000e+02
ITEM: ATOMS id type xs ys zs
113 1 0.487478 0.49928 0.454591
65 1 0.48042 0.479051 0.462454
68 2 0.495477 0.486052 0.464331
66 2 0.475911 0.498071 0.468246
140 1 0.503299 0.470413 0.46149
130 1 0.506648 0.49139 0.452769
8 2 0.517049 0.479208 0.467472
72 2 0.526314 0.490901 0.463085
31 1 0.482585 0.511702 0.460739
111 1 0.483406 0.52809 0.471453
73 2 0.496036 0.518185 0.473468
127 1 0.501877 0.509288 0.460274
23 1 0.517692 0.506378 0.456932
63 1 0.51341 0.523721 0.461158
64 2 0.526174 0.511292 0.470752
77 1 0.5094 0.534999 0.475247
36 1 0.473361 0.458406 0.494386
123 1 0.489732 0.45601 0.487641
135 1 0.490658 0.471266 0.471931
139 1 0.512832 0.464575 0.47519
92 2 0.503954 0.464111 0.48908
18 1 0.51349 0.451301 0.494162
44 1 0.467231 0.48566 0.473513
28 1 0.456898 0.490101 0.488572
30 1 0.462256 0.470298 0.48692
33 2 0.475223 0.483492 0.491433
81 2 0.469131 0.501049 0.482426
108 2 0.494998 0.500198 0.472379
110 2 0.490658 0.476273 0.488244
106 2 0.47711 0.470531 0.480637
26 2 0.4769 0.471722 0.501449
122 2 0.488817 0.486807 0.502062
3 2 0.501716 0.489689 0.484947
114 2 0.485005 0.486144 0.476605
55 2 0.510314 0.496844 0.471774
95 2 0.503914 0.478981 0.476102
83 2 0.517258 0.485955 0.483509
94 2 0.516151 0.473232 0.49155
47 1 0.526289 0.465587 0.506382
56 2 0.521459 0.486206 0.49958
27 1 0.527783 0.46953 0.478967
112 1 0.534881 0.483196 0.475478
40 2 0.532602 0.476254 0.493506
22 2 0.537736 0.490629 0.494497
41 1 0.465501 0.516366 0.477143
137 2 0.459779 0.510211 0.497394
125 2 0.499241 0.508503 0.48651
109 2 0.481184 0.512657 0.478694
91 2 0.485272 0.49812 0.48735
88 2 0.487987 0.523717 0.488301
102 2 0.475615 0.511167 0.492816
101 1 0.524255 0.533324 0.475708
129 2 0.513653 0.501332 0.4871
5 2 0.511283 0.51339 0.473909
71 2 0.506631 0.523634 0.487485
20 2 0.510252 0.515574 0.500795
58 2 0.522333 0.515868 0.489193
78 2 0.529444 0.499595 0.48105
131 2 0.50133 0.530625 0.501927
75 1 0.537799 0.517044 0.480596
79 1 0.544263 0.497275 0.478905
10 2 0.542072 0.507833 0.493648
138 1 0.461739 0.526383 0.498648
50 1 0.481769 0.541765 0.480435
126 2 0.473999 0.528642 0.486594
38 1 0.489271 0.54358 0.501295
42 1 0.473199 0.542236 0.496206
39 1 0.496924 0.539767 0.486199
69 2 0.515393 0.535502 0.493587
19 1 0.532424 0.530477 0.493883
1 1 0.46272 0.465144 0.505527
105 1 0.482327 0.459032 0.510075
9 2 0.486567 0.476157 0.514694
96 2 0.495078 0.468701 0.502066
54 2 0.500941 0.457211 0.517514
16 1 0.496459 0.452274 0.50211
74 1 0.533747 0.469869 0.521136
89 1 0.517918 0.462913 0.519963
37 1 0.471514 0.469683 0.518707
2 2 0.462116 0.480974 0.502089
51 1 0.460088 0.486757 0.5246
34 2 0.469628 0.496179 0.499058
119 1 0.503305 0.474963 0.518246
104 2 0.505028 0.481497 0.502154
12 2 0.473512 0.485139 0.511494
118 2 0.489399 0.493325 0.516884
7 2 0.483959 0.502702 0.505067
52 2 0.500656 0.499377 0.499159
97 2 0.505169 0.489783 0.51768
90 2 0.510251 0.465371 0.504555
35 2 0.519368 0.478095 0.513476
32 2 0.523248 0.481554 0.529531
48 2 0.520848 0.495582 0.522989
99 2 0.532137 0.492246 0.510185
116 2 0.515288 0.500028 0.507633
61 1 0.539338 0.477358 0.507764
134 1 0.539282 0.48791 0.526137
132 2 0.542716 0.504972 0.508619
115 1 0.451591 0.492801 0.503061
70 1 0.454834 0.515913 0.512171
59 1 0.465046 0.538597 0.509756
103 2 0.470323 0.499822 0.516608
67 2 0.49359 0.515068 0.500657
4 2 0.483291 0.51035 0.518759
15 2 0.481677 0.527827 0.503134
84 2 0.472199 0.514275 0.50667
14 2 0.491645 0.52465 0.515567
11 2 0.47383 0.52554 0.518055
133 2 0.518812 0.526592 0.505832
57 2 0.508047 0.52369 0.517222
6 2 0.500303 0.507974 0.515027
136 1 0.522837 0.513406 0.515366
17 1 0.525678 0.527431 0.526202
13 2 0.527908 0.504809 0.501102
24 2 0.535099 0.518971 0.503789
60 2 0.535706 0.50424 0.522719
49 1 0.538821 0.521226 0.521436
82 1 0.48308 0.540351 0.515825
43 1 0.488034 0.533844 0.529249
85 2 0.500666 0.541315 0.516709
124 1 0.50635 0.547709 0.4992
120 1 0.515564 0.540284 0.51319
21 1 0.531936 0.533827 0.511792
45 1 0.50863 0.473996 0.533685
93 2 0.463966 0.511338 0.527268
107 1 0.488416 0.468695 0.528673
121 1 0.477833 0.483096 0.529001
76 2 0.495114 0.4841 0.529668
53 1 0.492771 0.495245 0.543454
98 1 0.48023 0.501066 0.531659
25 2 0.497264 0.500623 0.528295
87 1 0.510224 0.491697 0.536253
86 1 0.527696 0.496071 0.539847
117 1 0.478567 0.517379 0.533706
128 2 0.498631 0.519121 0.529588
100 1 0.492615 0.511894 0.542615
141 2 0.511734 0.508458 0.527102
29 1 0.512334 0.521904 0.53857
62 1 0.525451 0.51126 0.53547
80 1 0.51143 0.506294 0.543559
46 1 0.509293 0.535734 0.531742
ITEM: TIMESTEP
11065000
ITEM: NUMBER OF ATOMS
141
ITEM: BOX BOUNDS pp pp pp
0.0000000000000000e+00 1.4356000000000000e+02
0.0000000000000000e+00 1.4356000000000000e+02
0.0000000000000000e+00 1.4356000000000000e+02
ITEM: ATOMS id type xs ys zs
135 1 0.47426 0.468618 0.469331
113 1 0.480874 0.485089 0.461504
68 2 0.495043 0.480056 0.47045
130 1 0.496047 0.490351 0.457926
140 1 0.509168 0.478154 0.460454
8 2 0.513366 0.494636 0.459139
112 1 0.524347 0.476441 0.469454
79 1 0.530219 0.500067 0.461521
127 1 0.485106 0.501437 0.457991
77 1 0.493021 0.521212 0.464324
31 1 0.470157 0.500899 0.465686
126 2 0.478609 0.516184 0.467374
72 2 0.501248 0.507177 0.461205
23 1 0.51078 0.523385 0.461826
111 1 0.500473 0.535745 0.472
44 1 0.474267 0.466569 0.487518
106 2 0.487349 0.460906 0.478395
123 1 0.487164 0.453264 0.493676
26 2 0.483986 0.469706 0.500754
139 1 0.504165 0.463503 0.473171
18 1 0.530622 0.461419 0.496605
27 1 0.521241 0.46239 0.481063
16 1 0.502758 0.455055 0.486675
92 2 0.513347 0.469264 0.493109
134 1 0.537892 0.468571 0.509292
65 1 0.465719 0.485865 0.471721
28 1 0.465574 0.479558 0.488539
33 2 0.479247 0.487994 0.496535
66 2 0.482803 0.494424 0.474204
114 2 0.481764 0.478079 0.48005
3 2 0.492561 0.489914 0.486234
91 2 0.485555 0.502844 0.492174
122 2 0.493419 0.486763 0.505863
52 2 0.498501 0.502476 0.499762
81 2 0.471481 0.495251 0.485128
108 2 0.502047 0.494561 0.472651
110 2 0.495872 0.471669 0.487935
94 2 0.522309 0.478341 0.486991
95 2 0.506903 0.480186 0.481159
83 2 0.518693 0.490085 0.474344
129 2 0.508023 0.485872 0.495459
13 2 0.52379 0.494566 0.492827
40 2 0.53453 0.487566 0.480659
22 2 0.537814 0.482326 0.497862
47 1 0.536071 0.471585 0.484685
41 1 0.464152 0.522454 0.476467
137 2 0.459203 0.505391 0.482813
138 1 0.462756 0.520366 0.494067
34 2 0.465857 0.50118 0.499283
109 2 0.492023 0.507432 0.476669
88 2 0.48612 0.525298 0.479077
102 2 0.475107 0.509467 0.480601
67 2 0.494252 0.515599 0.490879
131 2 0.4918 0.531818 0.494744
55 2 0.515547 0.507013 0.471579
125 2 0.508411 0.500782 0.486798
73 2 0.504412 0.518801 0.477515
5 2 0.519982 0.516407 0.485267
71 2 0.507978 0.53071 0.488284
64 2 0.527743 0.518382 0.470201
78 2 0.528616 0.503447 0.478556
10 2 0.538065 0.502566 0.494633
75 1 0.533798 0.517625 0.490373
42 1 0.485511 0.543134 0.482198
50 1 0.480691 0.542673 0.499522
82 1 0.47356 0.531084 0.488227
38 1 0.49712 0.547108 0.502917
63 1 0.519071 0.530802 0.474216
39 1 0.506668 0.547411 0.485013
69 2 0.515047 0.543574 0.499851
101 1 0.528936 0.533706 0.486771
36 1 0.478322 0.458296 0.510734
37 1 0.494609 0.44808 0.510785
96 2 0.498785 0.463763 0.500264
45 1 0.492885 0.467959 0.529442
105 1 0.514309 0.453254 0.499241
90 2 0.504372 0.462047 0.515427
89 1 0.521095 0.463409 0.510974
30 1 0.470372 0.474038 0.505521
1 1 0.460243 0.487674 0.503482
2 2 0.452154 0.4946 0.491949
103 2 0.468282 0.497857 0.51508
107 1 0.477748 0.471516 0.522802
51 1 0.464689 0.483673 0.522654
9 2 0.491761 0.471955 0.512983
12 2 0.479997 0.486533 0.515622
118 2 0.489407 0.501073 0.523766
97 2 0.503831 0.501811 0.517658
7 2 0.482528 0.502546 0.509642
119 1 0.510539 0.472493 0.528695
54 2 0.497232 0.487469 0.52098
104 2 0.507896 0.477062 0.51125
74 1 0.523602 0.479382 0.504408
35 2 0.514556 0.489607 0.518963
116 2 0.513219 0.496821 0.504856
56 2 0.529285 0.495647 0.508117
61 1 0.539871 0.483981 0.514874
32 2 0.525673 0.475897 0.520453
60 2 0.528979 0.491122 0.524517
121 1 0.451683 0.502218 0.512302
70 1 0.449854 0.510957 0.498352
93 2 0.464154 0.513998 0.510746
117 1 0.467343 0.511525 0.52759
84 2 0.482142 0.515168 0.518813
14 2 0.496249 0.526488 0.522494
6 2 0.49474 0.514527 0.508878
15 2 0.4803 0.516575 0.498778
25 2 0.503158 0.51285 0.5286
43 1 0.470311 0.528154 0.523046
20 2 0.508509 0.516277 0.496418
133 2 0.518469 0.527906 0.500459
58 2 0.523447 0.511515 0.502542
99 2 0.521564 0.505962 0.519941
128 2 0.511809 0.529799 0.5254
57 2 0.504054 0.53091 0.506713
136 1 0.524672 0.52111 0.516523
141 2 0.510694 0.516686 0.514002
48 2 0.510355 0.497818 0.533237
132 2 0.541709 0.499997 0.518541
24 2 0.539177 0.512445 0.509748
49 1 0.537418 0.513052 0.528385
59 1 0.467291 0.532405 0.504475
11 2 0.483954 0.529505 0.510019
85 2 0.491831 0.541817 0.517815
124 1 0.510408 0.544645 0.51597
120 1 0.524529 0.537262 0.513331
21 1 0.539388 0.528401 0.520534
19 1 0.53581 0.528215 0.503229
76 2 0.493011 0.49653 0.539964
98 1 0.485735 0.482496 0.532426
4 2 0.485189 0.51036 0.534653
87 1 0.501571 0.483411 0.537813
86 1 0.520248 0.485016 0.535026
80 1 0.506006 0.496395 0.548714
115 1 0.475245 0.495991 0.531254
53 1 0.499997 0.514835 0.543909
46 1 0.50005 0.531256 0.537602
100 1 0.484057 0.52902 0.533307
17 1 0.52312 0.519866 0.532643
29 1 0.515124 0.509525 0.542544
62 1 0.52763 0.501316 0.537814
ITEM: TIMESTEP
11070000
ITEM: NUMBER OF ATOMS
141
ITEM: BOX BOUNDS pp pp pp
0.0000000000000000e+00 1.4356000000000000e+02
0.0000000000000000e+00 1.4356000000000000e+02
0.0000000000000000e+00 1.4356000000000000e+02
ITEM: ATOMS id type xs ys zs
31 1 0.471061 0.493949 0.462015
113 1 0.476519 0.475358 0.460951
130 1 0.487623 0.487329 0.455886
66 2 0.487392 0.498604 0.467914
140 1 0.510566 0.471253 0.464833
108 2 0.503865 0.49 0.464558
79 1 0.520838 0.494017 0.461508
139 1 0.524754 0.481023 0.472542
127 1 0.47894 0.507003 0.454201
126 2 0.488139 0.513244 0.466994
72 2 0.502129 0.506246 0.474892
8 2 0.499232 0.50389 0.456713
23 1 0.500633 0.522707 0.463019
64 2 0.52284 0.506209 0.474781
77 1 0.505566 0.535477 0.47409
123 1 0.482215 0.459808 0.495703
105 1 0.495984 0.460621 0.505924
106 2 0.476173 0.469813 0.478587
16 1 0.515313 0.46271 0.480346
27 1 0.53105 0.4662 0.48819
18 1 0.501226 0.46031 0.489415
47 1 0.540247 0.481645 0.481441
65 1 0.46303 0.480487 0.469738
2 2 0.460013 0.487412 0.491543
135 1 0.458754 0.472517 0.485614
81 2 0.476921 0.490432 0.475996
68 2 0.493086 0.467002 0.469444
114 2 0.49069 0.482831 0.472268
3 2 0.498166 0.492998 0.484303
110 2 0.488662 0.476105 0.489264
122 2 0.485453 0.49049 0.494241
26 2 0.473841 0.48086 0.490873
92 2 0.502259 0.475164 0.481397
94 2 0.52138 0.4797 0.489101
95 2 0.513776 0.49102 0.478423
13 2 0.516931 0.491566 0.499053
90 2 0.515791 0.464472 0.497548
112 1 0.537149 0.494099 0.470064
83 2 0.529251 0.49468 0.484031
40 2 0.54472 0.499267 0.491906
10 2 0.542953 0.499148 0.506738
22 2 0.531718 0.487079 0.500427
137 2 0.460557 0.495276 0.474736
138 1 0.461389 0.514191 0.496824
34 2 0.469324 0.498314 0.490117
102 2 0.473255 0.507099 0.471399
82 1 0.46081 0.515464 0.47895
70 1 0.452072 0.50289 0.490161
109 2 0.491786 0.521686 0.478519
52 2 0.500731 0.497504 0.500595
91 2 0.486588 0.504171 0.482506
67 2 0.499351 0.512632 0.491227
15 2 0.475186 0.515612 0.485891
7 2 0.485773 0.506564 0.498684
41 1 0.465051 0.517213 0.462444
84 2 0.476083 0.520056 0.501225
6 2 0.500828 0.519134 0.507953
55 2 0.513927 0.512073 0.462349
58 2 0.52835 0.502534 0.497659
88 2 0.505808 0.526783 0.491226
125 2 0.512442 0.503055 0.487735
73 2 0.511107 0.519254 0.47976
5 2 0.527357 0.516223 0.488093
71 2 0.515039 0.51572 0.500462
133 2 0.526543 0.527178 0.502392
63 1 0.528971 0.522602 0.471651
78 2 0.539694 0.510576 0.478875
75 1 0.537168 0.528616 0.486006
24 2 0.541307 0.517121 0.498196
111 1 0.476732 0.527898 0.472115
50 1 0.474898 0.533962 0.488984
131 2 0.492226 0.53679 0.483798
39 1 0.506663 0.543529 0.487252
101 1 0.522055 0.534082 0.482874
124 1 0.524135 0.54176 0.49744
96 2 0.482282 0.474415 0.504392
37 1 0.463537 0.467221 0.499016
44 1 0.463574 0.472445 0.514448
30 1 0.494524 0.463133 0.523675
89 1 0.52427 0.465164 0.517713
119 1 0.516465 0.468368 0.530928
45 1 0.509425 0.466911 0.51406
134 1 0.53454 0.471091 0.503787
28 1 0.453299 0.480994 0.505348
1 1 0.458417 0.498557 0.506738
12 2 0.466704 0.485409 0.524169
33 2 0.472002 0.486002 0.508695
9 2 0.482774 0.482222 0.520357
54 2 0.487191 0.496084 0.510564
129 2 0.504102 0.480405 0.497239
118 2 0.491512 0.496793 0.529965
103 2 0.478001 0.49891 0.52275
98 1 0.480309 0.485135 0.537494
104 2 0.495833 0.477061 0.512807
74 1 0.518546 0.476822 0.507316
35 2 0.51425 0.481338 0.522359
116 2 0.504593 0.491595 0.514648
56 2 0.522171 0.492445 0.514483
60 2 0.524734 0.490796 0.532592
76 2 0.49811 0.482267 0.527172
32 2 0.532771 0.480778 0.520442
61 1 0.54637 0.482947 0.497311
132 2 0.536097 0.498861 0.522506
121 1 0.459223 0.503968 0.525563
93 2 0.472303 0.503211 0.505529
43 1 0.469817 0.516885 0.515962
117 1 0.472144 0.517834 0.532986
14 2 0.486204 0.513061 0.514771
57 2 0.498695 0.522945 0.524267
100 1 0.482925 0.530222 0.523897
97 2 0.502084 0.507297 0.522316
4 2 0.487142 0.513457 0.531724
25 2 0.514621 0.517251 0.533104
20 2 0.512758 0.504188 0.510128
99 2 0.529632 0.512695 0.51277
141 2 0.515854 0.520097 0.516604
48 2 0.521113 0.505588 0.524266
136 1 0.539881 0.527054 0.51328
49 1 0.533642 0.508615 0.535922
21 1 0.544534 0.511497 0.520375
59 1 0.46319 0.529519 0.506067
42 1 0.493107 0.537822 0.502787
11 2 0.488654 0.523575 0.493959
38 1 0.479079 0.533527 0.508976
85 2 0.502306 0.537182 0.516065
69 2 0.510729 0.535518 0.502852
128 2 0.514161 0.531755 0.528355
120 1 0.530842 0.538996 0.514253
19 1 0.542826 0.537356 0.50009
51 1 0.475219 0.471012 0.532413
36 1 0.479078 0.464093 0.517107
115 1 0.471048 0.499415 0.538728
107 1 0.491609 0.474199 0.53879
80 1 0.502325 0.493405 0.542699
87 1 0.514831 0.48229 0.541861
86 1 0.509267 0.494367 0.529432
53 1 0.485729 0.503806 0.545299
46 1 0.49914 0.530024 0.538903
17 1 0.530686 0.524952 0.52619
29 1 0.502694 0.509819 0.539722
62 1 0.517674 0.50345 0.542056
ITEM: TIMESTEP
11075000
ITEM: NUMBER OF ATOMS
141
ITEM: BOX BOUNDS pp pp pp
0.0000000000000000e+00 1.4356000000000000e+02
0.0000000000000000e+00 1.4356000000000000e+02
0.0000000000000000e+00 1.4356000000000000e+02
ITEM: ATOMS id type xs ys zs
16 1 0.508157 0.470306 0.461157
31 1 0.468125 0.482009 0.460923
113 1 0.484456 0.475093 0.45955
130 1 0.481542 0.493337 0.454103
140 1 0.496631 0.488319 0.453861
79 1 0.519685 0.485009 0.460474
64 2 0.528387 0.495159 0.473341
127 1 0.469802 0.500694 0.461084
8 2 0.500521 0.502989 0.459959
66 2 0.484906 0.503942 0.469188
111 1 0.472351 0.517363 0.465559
55 2 0.512507 0.494918 0.469511
23 1 0.514034 0.511281 0.462764
63 1 0.529796 0.513348 0.472682
123 1 0.481246 0.465684 0.473492
68 2 0.497139 0.47162 0.47319
96 2 0.494371 0.460941 0.487957
18 1 0.509132 0.460093 0.479509
90 2 0.512469 0.472922 0.49206
129 2 0.500289 0.482441 0.487188
139 1 0.520507 0.464082 0.468632
37 1 0.470606 0.471893 0.495081
65 1 0.458592 0.490839 0.471411
2 2 0.459892 0.485779 0.487733
135 1 0.46963 0.478 0.476996
108 2 0.498433 0.488225 0.472005
137 2 0.472366 0.496014 0.477898
33 2 0.47604 0.4879 0.490864
114 2 0.482211 0.48595 0.471495
81 2 0.485433 0.476769 0.485618
110 2 0.490626 0.489809 0.497199
122 2 0.488618 0.497223 0.482329
3 2 0.503103 0.500661 0.490058
92 2 0.512557 0.477379 0.475598
94 2 0.529988 0.478521 0.474161
95 2 0.517329 0.490169 0.483771
13 2 0.507247 0.489847 0.501046
22 2 0.523209 0.482816 0.500987
27 1 0.527993 0.46703 0.487718
83 2 0.534838 0.487211 0.486896
112 1 0.543505 0.500684 0.475898
47 1 0.538844 0.473888 0.498617
70 1 0.451333 0.501267 0.486557
41 1 0.461048 0.509524 0.47507
34 2 0.466261 0.502905 0.493775
82 1 0.462126 0.519264 0.489914
138 1 0.450613 0.513898 0.50355
126 2 0.486382 0.519614 0.473819
102 2 0.476476 0.509748 0.483209
91 2 0.492731 0.512113 0.493604
15 2 0.479324 0.521117 0.495366
72 2 0.501326 0.508713 0.475421
7 2 0.480619 0.502611 0.499774
58 2 0.522029 0.496969 0.49838
125 2 0.512996 0.511084 0.498214
73 2 0.504609 0.520664 0.486189
5 2 0.51621 0.507949 0.482192
71 2 0.523731 0.520932 0.489752
40 2 0.547986 0.493571 0.489917
78 2 0.531842 0.504672 0.487622
24 2 0.544409 0.508743 0.495764
75 1 0.542885 0.519549 0.483176
59 1 0.464554 0.529422 0.503877
50 1 0.474457 0.530993 0.482428
131 2 0.490701 0.533544 0.481181
38 1 0.483914 0.539602 0.495521
39 1 0.501388 0.524379 0.469068
77 1 0.516762 0.522452 0.47588
88 2 0.507276 0.537568 0.481927
101 1 0.528818 0.535138 0.479377
124 1 0.520346 0.541733 0.492959
19 1 0.539723 0.531657 0.49401
36 1 0.482806 0.461105 0.499437
105 1 0.488344 0.460411 0.514362
30 1 0.492588 0.471731 0.535494
51 1 0.470249 0.466722 0.510748
89 1 0.504547 0.459181 0.513179
45 1 0.51156 0.455925 0.494245
104 2 0.502566 0.475344 0.522
134 1 0.524423 0.465004 0.504203
44 1 0.458033 0.479393 0.5127
28 1 0.463964 0.500055 0.520338
103 2 0.470126 0.491194 0.507333
115 1 0.474231 0.495817 0.535536
106 2 0.495739 0.472328 0.501259
12 2 0.471696 0.482609 0.522007
26 2 0.480447 0.479237 0.506024
9 2 0.487953 0.479065 0.521233
54 2 0.483558 0.49536 0.515535
52 2 0.497505 0.502866 0.505559
76 2 0.505877 0.484012 0.534424
74 1 0.510991 0.474277 0.509059
35 2 0.518591 0.485664 0.515881
116 2 0.501498 0.491303 0.517131
56 2 0.511791 0.503489 0.512312
132 2 0.527551 0.500453 0.513523
32 2 0.534393 0.479092 0.51356
10 2 0.538093 0.490358 0.503178
121 1 0.453925 0.513006 0.521284
1 1 0.453872 0.497983 0.503115
93 2 0.46831 0.511672 0.507978
109 2 0.495945 0.528646 0.497827
118 2 0.496515 0.508109 0.522449
43 1 0.468929 0.523076 0.52039
11 2 0.485121 0.515549 0.510102
14 2 0.480273 0.509268 0.524906
85 2 0.489194 0.523147 0.523265
6 2 0.501785 0.51782 0.509432
67 2 0.513175 0.526768 0.499995
97 2 0.514305 0.497091 0.527208
57 2 0.510368 0.514024 0.527701
20 2 0.519114 0.517022 0.513911
141 2 0.528736 0.530769 0.506921
48 2 0.506307 0.52758 0.5211
17 1 0.52216 0.533049 0.522698
99 2 0.525382 0.508431 0.527845
61 1 0.543965 0.506545 0.513206
133 2 0.529406 0.513015 0.502208
21 1 0.534865 0.521164 0.521726
84 2 0.479724 0.531208 0.510667
69 2 0.495217 0.53594 0.512737
42 1 0.501676 0.544311 0.499974
128 2 0.499379 0.538856 0.529563
120 1 0.512862 0.541894 0.509557
136 1 0.54346 0.521991 0.506971
87 1 0.517496 0.468598 0.52223
98 1 0.47932 0.464509 0.527321
53 1 0.490749 0.491525 0.531804
107 1 0.490803 0.485783 0.547187
119 1 0.523514 0.482274 0.531705
80 1 0.516688 0.494825 0.545221
60 2 0.535007 0.49452 0.526076
117 1 0.466778 0.510037 0.533464
100 1 0.479576 0.522327 0.538483
4 2 0.485878 0.506052 0.539978
46 1 0.497939 0.517017 0.540422
29 1 0.5008 0.500925 0.539009
86 1 0.532611 0.503203 0.543775
25 2 0.512718 0.527243 0.536426
62 1 0.514656 0.510849 0.544063
49 1 0.529326 0.522311 0.538269
ITEM: TIMESTEP
11080000
ITEM: NUMBER OF ATOMS
141
ITEM: BOX BOUNDS pp pp pp
0.0000000000000000e+00 1.4356000000000000e+02
0.0000000000000000e+00 1.4356000000000000e+02
0.0000000000000000e+00 1.4356000000000000e+02
ITEM: ATOMS id type xs ys zs
113 1 0.505415 0.473993 0.459705
65 1 0.481145 0.484796 0.462262
130 1 0.496053 0.489212 0.457086
137 2 0.479866 0.50387 0.468141
140 1 0.514794 0.491188 0.455639
79 1 0.533354 0.482032 0.465929
94 2 0.518273 0.482534 0.470422
112 1 0.530445 0.494581 0.456085
70 1 0.463996 0.500406 0.465001
127 1 0.484294 0.501106 0.452504
39 1 0.48937 0.521736 0.464443
66 2 0.494179 0.504007 0.476014
111 1 0.470221 0.52295 0.468564
8 2 0.496929 0.507502 0.460653
63 1 0.514994 0.508267 0.462634
75 1 0.524155 0.521661 0.465799
77 1 0.488979 0.533975 0.47583
23 1 0.505092 0.521487 0.457034
123 1 0.489067 0.464602 0.483159
135 1 0.473659 0.467306 0.488652
16 1 0.504567 0.462916 0.476175
96 2 0.499806 0.459551 0.499033
139 1 0.522861 0.465984 0.473309
18 1 0.514586 0.459347 0.489358
134 1 0.529833 0.468205 0.495046
37 1 0.464148 0.48095 0.489829
103 2 0.471586 0.493384 0.479388
44 1 0.452515 0.486048 0.500556
34 2 0.468846 0.498103 0.494254
31 1 0.491217 0.471008 0.469455
2 2 0.475945 0.474938 0.474509
114 2 0.488684 0.488814 0.474293
68 2 0.497299 0.473497 0.492891
33 2 0.48144 0.483299 0.489804
129 2 0.496315 0.489839 0.489228
108 2 0.503355 0.482062 0.477247
55 2 0.505414 0.496008 0.470661
92 2 0.514552 0.476022 0.4858
95 2 0.514992 0.492275 0.483194
64 2 0.524766 0.497804 0.47216