ITEM: TIMESTEP
10500000
ITEM: NUMBER OF ATOMS
141
ITEM: BOX BOUNDS pp pp pp
0.0000000000000000e+00 1.4356000000000000e+02
0.0000000000000000e+00 1.4356000000000000e+02
0.0000000000000000e+00 1.4356000000000000e+02
ITEM: ATOMS id type xs ys zs
36 1 0.489179 0.489372 0.45952
49 1 0.474606 0.494965 0.459627
70 1 0.487475 0.470636 0.465551
140 1 0.520394 0.470825 0.4696
69 2 0.502651 0.477473 0.464553
30 1 0.50607 0.496183 0.456895
27 1 0.528107 0.488974 0.464889
6 2 0.474401 0.514791 0.469884
47 1 0.487094 0.508177 0.459985
105 1 0.483696 0.528954 0.470546
72 2 0.519268 0.50474 0.465429
56 2 0.503729 0.514538 0.462233
53 1 0.518149 0.521707 0.46574
104 2 0.499701 0.529558 0.468245
112 1 0.489236 0.456482 0.478732
134 1 0.471253 0.469596 0.479147
101 1 0.472868 0.469554 0.495317
139 1 0.485192 0.458806 0.499913
14 2 0.496638 0.469818 0.497203
38 1 0.50279 0.455683 0.487454
29 1 0.504379 0.462764 0.471704
71 2 0.513039 0.464863 0.494184
39 1 0.529901 0.464912 0.483385
23 1 0.46384 0.486259 0.478626
122 2 0.460213 0.498907 0.488995
79 1 0.459763 0.477571 0.492738
13 2 0.468881 0.489017 0.497968
17 1 0.476761 0.483047 0.470662
129 2 0.483071 0.498289 0.473242
7 2 0.479339 0.488797 0.486177
67 2 0.485806 0.47369 0.485597
83 2 0.494049 0.484374 0.475986
108 2 0.49592 0.485121 0.493379
131 2 0.511872 0.488562 0.472014
54 2 0.505485 0.475118 0.482831
15 2 0.524637 0.498335 0.480506
92 2 0.523853 0.481636 0.48404
102 2 0.508794 0.497408 0.485896
118 2 0.526463 0.494373 0.49646
26 2 0.51226 0.48452 0.496386
136 1 0.541727 0.499876 0.473337
16 1 0.539268 0.487497 0.4844
89 1 0.540578 0.47212 0.495833
130 1 0.545429 0.498376 0.499748
135 1 0.464052 0.501677 0.471236
93 2 0.461963 0.515583 0.48412
75 1 0.449973 0.509516 0.495691
2 2 0.476589 0.506315 0.4878
116 2 0.492859 0.527959 0.48798
20 2 0.493344 0.500309 0.487237
106 2 0.477956 0.522548 0.484677
18 1 0.48957 0.513802 0.476226
66 2 0.489124 0.513926 0.496764
55 2 0.500705 0.502791 0.471832
8 2 0.517092 0.506886 0.497098
95 2 0.504075 0.514828 0.492
34 2 0.514753 0.512034 0.478788
110 2 0.509264 0.528602 0.480058
128 2 0.52286 0.521624 0.491634
97 2 0.533036 0.514195 0.473529
90 2 0.533251 0.507726 0.489949
62 1 0.539674 0.524026 0.487405
124 1 0.4657 0.533715 0.480471
111 1 0.481914 0.544089 0.478453
19 1 0.491976 0.542004 0.49625
117 1 0.476674 0.532998 0.496545
37 1 0.501719 0.542843 0.481104
68 2 0.512805 0.545604 0.494574
127 1 0.527387 0.530451 0.476306
12 2 0.529022 0.537119 0.491247
121 1 0.517681 0.544271 0.474267
73 2 0.508959 0.529956 0.496546
50 1 0.477429 0.463027 0.513399
113 1 0.495327 0.456657 0.526566
57 2 0.493558 0.468417 0.513269
98 1 0.503419 0.454339 0.506794
125 2 0.520403 0.460748 0.509562
33 2 0.509608 0.461695 0.520952
77 1 0.534424 0.470537 0.513201
28 1 0.449647 0.4924 0.503244
42 1 0.463963 0.484543 0.525268
9 2 0.466306 0.476949 0.509718
21 1 0.481333 0.476001 0.522297
24 2 0.48417 0.479869 0.504593
58 2 0.472071 0.493351 0.514287
91 2 0.483654 0.493921 0.500345
60 2 0.486295 0.491319 0.519129
132 2 0.498063 0.486902 0.509143
94 2 0.503187 0.47727 0.523761
84 2 0.518326 0.482434 0.515258
3 2 0.509727 0.472042 0.507851
40 2 0.525655 0.477092 0.502002
126 2 0.515392 0.497239 0.510713
52 2 0.527327 0.496855 0.523664
88 2 0.509454 0.493474 0.524609
32 2 0.501488 0.499286 0.500747
123 1 0.534758 0.483229 0.527447
51 1 0.536142 0.487594 0.509563
86 1 0.46475 0.521897 0.501834
137 2 0.46865 0.504755 0.502587
100 1 0.455893 0.500445 0.519043
85 2 0.455231 0.516651 0.513876
35 2 0.484228 0.507783 0.510445
99 2 0.479662 0.52297 0.50842
25 2 0.493275 0.518632 0.520211
103 2 0.497934 0.50338 0.519334
96 2 0.47104 0.510148 0.518175
11 2 0.494878 0.528586 0.505711
45 1 0.480166 0.527138 0.525534
109 2 0.48441 0.505133 0.527459
48 2 0.518777 0.519341 0.508377
133 2 0.502729 0.513927 0.507675
76 2 0.513969 0.509059 0.52129
5 2 0.50931 0.526665 0.520614
4 2 0.534225 0.523011 0.504458
31 1 0.54629 0.512006 0.509226
81 2 0.530426 0.507241 0.507218
22 2 0.529839 0.514966 0.522449
1 1 0.541454 0.500805 0.518549
107 1 0.468039 0.534658 0.512811
114 2 0.488447 0.538939 0.515171
141 2 0.506129 0.539281 0.509448
120 1 0.525231 0.537835 0.506889
115 1 0.526409 0.530187 0.521084
61 1 0.516288 0.541384 0.525652
46 1 0.491822 0.470538 0.535442
44 1 0.508013 0.462555 0.536
10 2 0.495342 0.48863 0.532953
63 1 0.47905 0.488173 0.534672
74 1 0.520175 0.473289 0.529482
59 1 0.505822 0.478171 0.541772
80 1 0.521943 0.488056 0.536224
119 1 0.508901 0.495719 0.544572
82 1 0.466868 0.500138 0.531338
87 1 0.488709 0.504925 0.544537
43 1 0.492366 0.520788 0.538447
41 1 0.518655 0.520697 0.532747
64 2 0.500948 0.506788 0.533439
138 1 0.519369 0.50507 0.537064
65 1 0.507364 0.519876 0.541163
78 2 0.499915 0.535372 0.530121
ITEM: TIMESTEP
10505000
ITEM: NUMBER OF ATOMS
141
ITEM: BOX BOUNDS pp pp pp
0.0000000000000000e+00 1.4356000000000000e+02
0.0000000000000000e+00 1.4356000000000000e+02
0.0000000000000000e+00 1.4356000000000000e+02
ITEM: ATOMS id type xs ys zs
17 1 0.469491 0.479821 0.471823
36 1 0.496564 0.472099 0.461124
47 1 0.48836 0.501687 0.458727
129 2 0.484619 0.487381 0.46794
131 2 0.516908 0.488482 0.46401
69 2 0.51319 0.473691 0.470832
55 2 0.499674 0.488018 0.463889
49 1 0.465227 0.496529 0.471981
105 1 0.487558 0.517027 0.461559
124 1 0.467232 0.519618 0.464286
56 2 0.495264 0.510504 0.475238
30 1 0.507794 0.502685 0.452852
34 2 0.509504 0.515772 0.465218
72 2 0.522548 0.503212 0.462273
29 1 0.485118 0.457848 0.480336
14 2 0.493522 0.467963 0.49255
38 1 0.500516 0.454494 0.487756
98 1 0.500027 0.461176 0.473131
139 1 0.516167 0.458979 0.479461
71 2 0.522577 0.4693 0.495085
112 1 0.468724 0.467027 0.483423
134 1 0.46121 0.483776 0.484742
70 1 0.480797 0.469512 0.46951
24 2 0.479662 0.47866 0.486145
135 1 0.461278 0.499197 0.489699
67 2 0.478202 0.49362 0.483017
83 2 0.493369 0.479037 0.47912
7 2 0.485916 0.495922 0.49779
20 2 0.495774 0.496506 0.482501
13 2 0.470801 0.487445 0.497917
108 2 0.49868 0.48365 0.492948
140 1 0.529191 0.476616 0.470467
54 2 0.508697 0.471289 0.486863
92 2 0.523354 0.482604 0.485182
102 2 0.508019 0.487053 0.47999
15 2 0.522688 0.497891 0.480088
8 2 0.510635 0.504469 0.488043
27 1 0.53915 0.488769 0.478493
39 1 0.538051 0.47724 0.49254
16 1 0.550603 0.486578 0.492371
6 2 0.465764 0.514484 0.479963
23 1 0.453972 0.498488 0.503931
86 1 0.456811 0.516932 0.496682
2 2 0.471904 0.503806 0.5031
104 2 0.497976 0.526727 0.472009
122 2 0.478664 0.510175 0.490803
93 2 0.483557 0.521397 0.480458
116 2 0.496697 0.528348 0.4878
106 2 0.469927 0.52657 0.488581
18 1 0.479439 0.505507 0.471688
66 2 0.495719 0.511111 0.492992
97 2 0.523198 0.514215 0.475998
95 2 0.507821 0.501166 0.471795
110 2 0.50882 0.519432 0.482217
128 2 0.527961 0.510598 0.491843
73 2 0.509207 0.517235 0.498971
68 2 0.50742 0.535664 0.497495
12 2 0.52105 0.52685 0.488645
4 2 0.527997 0.520706 0.505173
136 1 0.534595 0.490874 0.461349
90 2 0.53155 0.493534 0.497627
62 1 0.538895 0.506133 0.478346
127 1 0.537893 0.525096 0.487471
117 1 0.472694 0.533925 0.474482
111 1 0.487118 0.539757 0.47971
11 2 0.487974 0.544824 0.494757
19 1 0.503302 0.551115 0.497937
37 1 0.506831 0.54289 0.482085
53 1 0.512778 0.531385 0.4727
121 1 0.520306 0.54429 0.491465
120 1 0.531868 0.537057 0.50108
21 1 0.47781 0.463067 0.513847
50 1 0.480677 0.461403 0.496533
113 1 0.493462 0.453437 0.505717
57 2 0.493676 0.469092 0.508648
60 2 0.492708 0.467255 0.529435
125 2 0.522265 0.466482 0.510772
33 2 0.50935 0.461727 0.501986
123 1 0.519966 0.478506 0.52452
74 1 0.506414 0.459729 0.519185
101 1 0.467741 0.47086 0.499256
79 1 0.455584 0.481568 0.501653
42 1 0.462014 0.494592 0.517389
91 2 0.483084 0.478577 0.503325
9 2 0.468009 0.480042 0.51307
58 2 0.485387 0.476824 0.519583
137 2 0.477314 0.492449 0.513495
32 2 0.503811 0.499907 0.501616
63 1 0.472619 0.488777 0.529336
3 2 0.507538 0.476549 0.507735
94 2 0.504522 0.478389 0.523211
132 2 0.493648 0.488123 0.510769
118 2 0.530613 0.496078 0.513674
26 2 0.513448 0.487943 0.496292
84 2 0.51228 0.490845 0.51285
88 2 0.504632 0.495608 0.526844
89 1 0.544342 0.487731 0.508158
40 2 0.525448 0.481813 0.505991
77 1 0.537095 0.475312 0.517681
51 1 0.541616 0.501689 0.523993
28 1 0.459698 0.510209 0.512708
75 1 0.465896 0.521104 0.522228
82 1 0.468923 0.506836 0.533626
35 2 0.491403 0.504261 0.52266
85 2 0.47184 0.520344 0.505394
99 2 0.487533 0.512072 0.50786
25 2 0.499509 0.521847 0.523923
96 2 0.475539 0.506904 0.519884
52 2 0.51943 0.50111 0.525613
103 2 0.519523 0.506243 0.50657
48 2 0.51495 0.528104 0.509438
133 2 0.496309 0.526361 0.507407
76 2 0.503647 0.509012 0.514234
81 2 0.520788 0.517711 0.519741
130 1 0.545976 0.504864 0.492422
1 1 0.537514 0.519045 0.52305
22 2 0.537424 0.507152 0.507199
107 1 0.469659 0.536867 0.503751
5 2 0.484098 0.525529 0.496645
78 2 0.503598 0.542298 0.512277
45 1 0.480535 0.526178 0.517594
114 2 0.485285 0.537949 0.509308
141 2 0.517185 0.544888 0.507833
31 1 0.52754 0.533837 0.520421
44 1 0.513729 0.4692 0.535999
109 2 0.489446 0.488824 0.529047
46 1 0.478437 0.474555 0.534502
10 2 0.498474 0.479063 0.53958
87 1 0.48253 0.486683 0.544137
126 2 0.532074 0.488741 0.528765
59 1 0.514848 0.487848 0.537864
119 1 0.499969 0.495493 0.543128
100 1 0.482519 0.519786 0.533784
65 1 0.486306 0.502895 0.537613
41 1 0.496932 0.527708 0.537825
64 2 0.503129 0.510528 0.533788
115 1 0.508715 0.537412 0.529095
61 1 0.517613 0.519254 0.53592
138 1 0.516511 0.503185 0.542305
80 1 0.530813 0.511013 0.536447
43 1 0.492229 0.536866 0.524512
ITEM: TIMESTEP
10510000
ITEM: NUMBER OF ATOMS
141
ITEM: BOX BOUNDS pp pp pp
0.0000000000000000e+00 1.4356000000000000e+02
0.0000000000000000e+00 1.4356000000000000e+02
0.0000000000000000e+00 1.4356000000000000e+02
ITEM: ATOMS id type xs ys zs
70 1 0.483621 0.474907 0.465878
49 1 0.47219 0.492789 0.464533
129 2 0.487518 0.490166 0.462687
47 1 0.502368 0.492111 0.456069
131 2 0.51992 0.496844 0.453293
98 1 0.500614 0.480062 0.465072
69 2 0.520361 0.481917 0.462323
15 2 0.529889 0.491447 0.471694
36 1 0.493784 0.510072 0.45389
124 1 0.482871 0.498832 0.451734
56 2 0.496681 0.502964 0.468524
111 1 0.47865 0.511969 0.463389
105 1 0.494494 0.521572 0.464707
30 1 0.508885 0.508868 0.453074
34 2 0.522821 0.505784 0.465639
104 2 0.516624 0.519757 0.460938
29 1 0.478119 0.464679 0.478348
113 1 0.498261 0.461535 0.487758
101 1 0.470054 0.472113 0.49264
38 1 0.494073 0.464129 0.471157
139 1 0.517211 0.464663 0.489173
92 2 0.510221 0.468842 0.471437
140 1 0.532841 0.469082 0.495437
134 1 0.45679 0.482226 0.494319
122 2 0.465044 0.501055 0.498652
17 1 0.461676 0.493804 0.482733
55 2 0.477761 0.498807 0.478845
112 1 0.473955 0.48287 0.477668
14 2 0.487073 0.476046 0.485922
24 2 0.47772 0.488344 0.493239
83 2 0.492515 0.4909 0.478974
108 2 0.494259 0.488304 0.494588
72 2 0.511313 0.492015 0.473611
54 2 0.503891 0.480071 0.48134
102 2 0.502083 0.504265 0.485358
26 2 0.510007 0.491779 0.490942
128 2 0.528375 0.494115 0.488288
33 2 0.520544 0.480573 0.495234
71 2 0.50584 0.475289 0.496527
90 2 0.519652 0.480535 0.47952
136 1 0.535839 0.478497 0.481321
27 1 0.541526 0.484192 0.497731
135 1 0.448293 0.498245 0.49447
107 1 0.454145 0.514994 0.485487
106 2 0.473423 0.510496 0.488455
18 1 0.463816 0.508143 0.4718
67 2 0.485543 0.504038 0.49509
93 2 0.47173 0.522711 0.475722
20 2 0.487696 0.51388 0.479434
66 2 0.495874 0.516346 0.496168
5 2 0.482559 0.523719 0.491731
133 2 0.501233 0.524718 0.483955
97 2 0.529414 0.520988 0.472277
116 2 0.507986 0.5139 0.471291
8 2 0.512691 0.513856 0.494603
95 2 0.518156 0.506104 0.48211
110 2 0.518841 0.527182 0.482771
73 2 0.519705 0.502584 0.502104
12 2 0.530136 0.510828 0.493328
68 2 0.522407 0.541232 0.495653
16 1 0.54303 0.493308 0.483617
22 2 0.534958 0.506245 0.47755
62 1 0.538874 0.524724 0.487388
114 2 0.466476 0.520907 0.499043
117 1 0.475058 0.538213 0.491247
19 1 0.488288 0.531047 0.477475
11 2 0.493386 0.53785 0.493669
53 1 0.522923 0.542009 0.477713
37 1 0.505084 0.535743 0.467878
121 1 0.504379 0.541629 0.482268
50 1 0.481896 0.45959 0.493883
21 1 0.470434 0.46773 0.507518
60 2 0.484709 0.464005 0.514156
39 1 0.520987 0.461054 0.505552
57 2 0.500253 0.463658 0.506868
74 1 0.523385 0.464584 0.523483
79 1 0.454494 0.4937 0.508604
42 1 0.457094 0.484179 0.520722
13 2 0.470216 0.485092 0.507264
9 2 0.470442 0.475821 0.523211
7 2 0.501421 0.502262 0.501103
91 2 0.486676 0.476448 0.502177
58 2 0.483423 0.482249 0.518339
137 2 0.482749 0.501001 0.519793
132 2 0.498554 0.494288 0.517166
99 2 0.485126 0.493427 0.507058
125 2 0.517966 0.47576 0.511912
3 2 0.50986 0.487674 0.508173
94 2 0.498382 0.477907 0.514443
84 2 0.518675 0.492882 0.521681
103 2 0.526842 0.488524 0.508401
44 1 0.520809 0.474484 0.540332
88 2 0.507537 0.482381 0.528794
40 2 0.53934 0.50029 0.502055
123 1 0.527508 0.47902 0.524996
89 1 0.542646 0.487478 0.516185
77 1 0.536244 0.471356 0.512127
6 2 0.455675 0.511638 0.5061
86 1 0.45763 0.503494 0.526317
28 1 0.466783 0.522817 0.515461
2 2 0.468748 0.504528 0.513915
100 1 0.47299 0.510937 0.530359
85 2 0.48132 0.513313 0.509396
35 2 0.495354 0.51208 0.516712
96 2 0.480934 0.524873 0.523839
45 1 0.493216 0.529209 0.508029
23 1 0.487423 0.540458 0.520727
75 1 0.496035 0.529711 0.536861
118 2 0.527632 0.512934 0.513625
25 2 0.506095 0.516664 0.526422
32 2 0.511654 0.504886 0.514991
48 2 0.509915 0.51949 0.509588
81 2 0.521564 0.5093 0.529615
4 2 0.525373 0.526588 0.501698
141 2 0.508419 0.531175 0.496383
1 1 0.52129 0.526909 0.519913
127 1 0.548538 0.507841 0.490555
130 1 0.545525 0.509344 0.51476
51 1 0.540534 0.518566 0.502027
78 2 0.476337 0.532984 0.506768
120 1 0.514596 0.540309 0.51049
43 1 0.498331 0.544321 0.508445
115 1 0.503623 0.531694 0.520683
10 2 0.507853 0.468049 0.520362
46 1 0.493053 0.471922 0.529322
87 1 0.479034 0.481817 0.535604
119 1 0.497943 0.483752 0.542688
109 2 0.490464 0.49254 0.530717
52 2 0.524796 0.493679 0.534936
59 1 0.506666 0.467491 0.536812
138 1 0.510936 0.491059 0.546743
126 2 0.53316 0.500067 0.521641
63 1 0.471356 0.492203 0.526849
82 1 0.482722 0.520467 0.541719
65 1 0.479339 0.500247 0.540957
41 1 0.491447 0.511132 0.531856
64 2 0.495824 0.499967 0.544613
76 2 0.505949 0.498162 0.531964
31 1 0.520122 0.523004 0.536659
61 1 0.50234 0.517336 0.543771
80 1 0.514015 0.505681 0.543913
ITEM: TIMESTEP
10515000
ITEM: NUMBER OF ATOMS
141
ITEM: BOX BOUNDS pp pp pp
0.0000000000000000e+00 1.4356000000000000e+02
0.0000000000000000e+00 1.4356000000000000e+02
0.0000000000000000e+00 1.4356000000000000e+02
ITEM: ATOMS id type xs ys zs
98 1 0.500647 0.471582 0.466658
129 2 0.48552 0.484146 0.472012
47 1 0.498361 0.485961 0.457475
124 1 0.476834 0.504772 0.459131
112 1 0.464912 0.492548 0.470551
131 2 0.50864 0.48478 0.472583
34 2 0.526311 0.49018 0.468569
30 1 0.519228 0.4811 0.457992
49 1 0.464782 0.510101 0.472097
36 1 0.498395 0.502109 0.45449
111 1 0.475932 0.520089 0.462981
105 1 0.491896 0.526245 0.46376
116 2 0.511627 0.495113 0.460751
53 1 0.522749 0.525138 0.469454
97 2 0.524188 0.506951 0.464768
37 1 0.505625 0.533865 0.467668
50 1 0.469074 0.467041 0.48598
29 1 0.486344 0.466386 0.473051
38 1 0.501474 0.460619 0.479597
57 2 0.489205 0.458101 0.489365
113 1 0.509341 0.455386 0.493509
139 1 0.535874 0.46831 0.477403
69 2 0.515348 0.47022 0.474069
77 1 0.526295 0.465155 0.49245
101 1 0.4593 0.48206 0.485346
135 1 0.461731 0.492669 0.501378
70 1 0.471039 0.476113 0.473953
122 2 0.472525 0.481751 0.500677
14 2 0.474978 0.487824 0.484243
83 2 0.490199 0.492655 0.486516
94 2 0.497745 0.478189 0.481866
91 2 0.483638 0.476115 0.491503
54 2 0.49741 0.495713 0.471901
92 2 0.510181 0.472296 0.492038
26 2 0.510034 0.48848 0.487415
128 2 0.527969 0.495938 0.488834
33 2 0.527219 0.483894 0.497269
90 2 0.523582 0.480077 0.482851
108 2 0.499272 0.483838 0.500556
136 1 0.539515 0.483504 0.478794
27 1 0.544335 0.491112 0.492257
140 1 0.540335 0.472741 0.493937
24 2 0.474564 0.501353 0.493585
17 1 0.460949 0.50077 0.484644
107 1 0.461851 0.521409 0.487953
18 1 0.464272 0.527618 0.47272
56 2 0.48988 0.50948 0.470313
55 2 0.478953 0.500505 0.474871
106 2 0.475883 0.516043 0.481252
67 2 0.488231 0.51033 0.48977
20 2 0.496273 0.519309 0.478661
5 2 0.486991 0.526046 0.492489
104 2 0.50736 0.514331 0.466918
72 2 0.51642 0.499886 0.47728
66 2 0.501558 0.517742 0.497043
102 2 0.502629 0.506515 0.484007
8 2 0.517853 0.509976 0.495652
95 2 0.527115 0.509878 0.481302
110 2 0.513364 0.519686 0.482338
7 2 0.500836 0.50122 0.49837
141 2 0.514121 0.527738 0.495484
15 2 0.538218 0.500337 0.474067
12 2 0.529293 0.520567 0.500754
22 2 0.540556 0.506626 0.490231
62 1 0.534013 0.526133 0.483856
93 2 0.481544 0.532223 0.476155
133 2 0.500409 0.532909 0.482161
117 1 0.473016 0.535907 0.489982
19 1 0.490163 0.545262 0.486242
68 2 0.517513 0.534442 0.481584
121 1 0.507895 0.545115 0.490676
4 2 0.528327 0.537352 0.49482
21 1 0.474191 0.463076 0.502112
60 2 0.488572 0.468579 0.52545
71 2 0.498919 0.46599 0.501277
39 1 0.486753 0.458691 0.510645
10 2 0.507436 0.471684 0.532517
74 1 0.522019 0.457683 0.507295
44 1 0.519042 0.467058 0.521643
134 1 0.459611 0.474676 0.506327
42 1 0.470502 0.471288 0.518196
13 2 0.471743 0.488432 0.514453
86 1 0.454416 0.500433 0.520065
63 1 0.461936 0.484657 0.527719
99 2 0.485007 0.491659 0.502801
9 2 0.479809 0.482846 0.525758
58 2 0.485964 0.476662 0.509213
137 2 0.494826 0.485624 0.528766
132 2 0.500324 0.491654 0.513447
2 2 0.486092 0.497295 0.518225
3 2 0.514926 0.47543 0.506671
84 2 0.512314 0.486701 0.523195
88 2 0.502456 0.472094 0.51762
73 2 0.513362 0.495122 0.501917
109 2 0.505972 0.499894 0.531461
125 2 0.531044 0.470687 0.507557
103 2 0.52435 0.488004 0.513863
123 1 0.533992 0.477763 0.526389
89 1 0.54177 0.484862 0.507736
16 1 0.54614 0.505718 0.506909
79 1 0.459699 0.509696 0.498813
28 1 0.459857 0.516587 0.51464
82 1 0.461147 0.511907 0.530922
100 1 0.470489 0.499337 0.526914
6 2 0.47277 0.50455 0.509814
114 2 0.474069 0.518256 0.50045
85 2 0.487871 0.509746 0.506308
35 2 0.490774 0.514441 0.523629
96 2 0.475051 0.517333 0.519914
45 1 0.489371 0.527231 0.510767
25 2 0.498549 0.527249 0.529537
126 2 0.517096 0.502181 0.519312
76 2 0.510135 0.515321 0.526038
118 2 0.519772 0.51561 0.510628
32 2 0.504484 0.509482 0.511559
48 2 0.506827 0.52403 0.512379
127 1 0.526103 0.532849 0.512545
81 2 0.532026 0.508273 0.522948
40 2 0.531316 0.50053 0.505392
130 1 0.539013 0.492947 0.523279
51 1 0.538534 0.52119 0.514058
11 2 0.499819 0.533261 0.499799
78 2 0.470695 0.530772 0.510251
23 1 0.48355 0.540283 0.501183
43 1 0.512749 0.53439 0.52505
75 1 0.482085 0.532526 0.525065
120 1 0.49881 0.53973 0.515917
115 1 0.524753 0.522412 0.524948
1 1 0.513214 0.541457 0.50781
46 1 0.48636 0.479004 0.543472
87 1 0.477338 0.490952 0.540786
119 1 0.496024 0.493249 0.547289
65 1 0.487865 0.501599 0.53407
59 1 0.509923 0.48565 0.540447
138 1 0.522671 0.473439 0.537992
80 1 0.51317 0.501621 0.546155
61 1 0.483321 0.52122 0.535929
64 2 0.499568 0.513405 0.539125
52 2 0.525057 0.490683 0.533988
31 1 0.52132 0.511569 0.536441
41 1 0.51253 0.525832 0.541919
ITEM: TIMESTEP
10520000
ITEM: NUMBER OF ATOMS
141
ITEM: BOX BOUNDS pp pp pp
0.0000000000000000e+00 1.4356000000000000e+02
0.0000000000000000e+00 1.4356000000000000e+02
0.0000000000000000e+00 1.4356000000000000e+02
ITEM: ATOMS id type xs ys zs
30 1 0.501471 0.477022 0.457839
70 1 0.492749 0.491112 0.458954
54 2 0.501601 0.500646 0.471613
101 1 0.472991 0.486695 0.471413
47 1 0.511243 0.491495 0.459563
34 2 0.519419 0.47959 0.468238
116 2 0.515705 0.506548 0.463794
136 1 0.526737 0.495076 0.464226
112 1 0.477788 0.500308 0.460101
124 1 0.47809 0.527326 0.467956
36 1 0.49765 0.505291 0.454717
105 1 0.494446 0.530811 0.461895
104 2 0.503705 0.518781 0.466624
37 1 0.523633 0.523929 0.465565
29 1 0.4886 0.476108 0.469159
57 2 0.485616 0.468004 0.495965
38 1 0.49247 0.457626 0.48193
50 1 0.476231 0.466181 0.480118
94 2 0.498577 0.47445 0.486165
98 1 0.503565 0.467076 0.470866
113 1 0.504698 0.45169 0.49523
77 1 0.516195 0.458318 0.486487
140 1 0.529131 0.467884 0.478172
21 1 0.46941 0.461129 0.496601
17 1 0.463153 0.476067 0.483888
49 1 0.454289 0.493221 0.480751
135 1 0.456578 0.485325 0.497707
14 2 0.469751 0.492923 0.489285
129 2 0.487542 0.493927 0.474639
83 2 0.49793 0.491596 0.48741
91 2 0.483842 0.482804 0.48601
99 2 0.483557 0.491355 0.50006
122 2 0.47201 0.479551 0.500642
69 2 0.513737 0.472573 0.483408
131 2 0.503489 0.483872 0.47262
26 2 0.510153 0.483356 0.493212
90 2 0.527318 0.483744 0.48332
72 2 0.516043 0.495183 0.476771
33 2 0.527234 0.472881 0.496448
139 1 0.535867 0.481568 0.469818
27 1 0.542992 0.474978 0.494502
22 2 0.54122 0.496617 0.47892
16 1 0.541776 0.49326 0.497465
107 1 0.457197 0.511575 0.484368
79 1 0.454841 0.500115 0.497004
114 2 0.469984 0.508648 0.495687
18 1 0.464463 0.523576 0.491567
55 2 0.471493 0.502938 0.474569
56 2 0.488441 0.511743 0.468856
106 2 0.47559 0.516555 0.481319
67 2 0.483601 0.502471 0.487226
20 2 0.491776 0.52424 0.479543
45 1 0.486419 0.517861 0.498802
11 2 0.495339 0.532913 0.493795
53 1 0.528964 0.522232 0.483709
97 2 0.515171 0.512751 0.477958
66 2 0.503873 0.518509 0.499411
102 2 0.497119 0.510682 0.485226
8 2 0.511349 0.500055 0.492417
110 2 0.510156 0.524955 0.48566
141 2 0.519671 0.51368 0.493774
15 2 0.527778 0.500427 0.487515
95 2 0.529578 0.510128 0.472202
62 1 0.541396 0.512021 0.484225
4 2 0.536925 0.518472 0.499457
111 1 0.490716 0.540938 0.476791
5 2 0.478914 0.531015 0.486445
93 2 0.50676 0.535949 0.472292
133 2 0.520214 0.536802 0.48359
68 2 0.52611 0.532797 0.498062
134 1 0.476861 0.459179 0.511424
42 1 0.477824 0.473879 0.527593
71 2 0.493814 0.459506 0.506955
60 2 0.490578 0.463515 0.522667
39 1 0.486449 0.449328 0.494393
92 2 0.506977 0.467357 0.498751
74 1 0.507689 0.458767 0.51506
44 1 0.521951 0.460261 0.507609
24 2 0.46875 0.495161 0.506414
63 1 0.463452 0.474716 0.514386
86 1 0.463417 0.488337 0.526278
28 1 0.451443 0.491569 0.513434
13 2 0.477258 0.486836 0.516606
58 2 0.485138 0.473682 0.510599
132 2 0.494241 0.49045 0.51452
9 2 0.493854 0.478437 0.530867
128 2 0.525613 0.487383 0.499992
88 2 0.499489 0.473881 0.515661
10 2 0.522496 0.469231 0.521324
108 2 0.496099 0.479714 0.501058
3 2 0.516073 0.476931 0.50922
73 2 0.509272 0.493308 0.507579
103 2 0.508788 0.487382 0.52255
40 2 0.524431 0.493124 0.519551
123 1 0.528402 0.482585 0.533303
125 2 0.532396 0.477496 0.511692
89 1 0.541023 0.49295 0.513475
117 1 0.45644 0.507187 0.510521
82 1 0.46183 0.520366 0.524733
6 2 0.471548 0.504706 0.520528
7 2 0.496918 0.502959 0.499366
137 2 0.487198 0.504089 0.524259
85 2 0.482018 0.504044 0.508293
96 2 0.482444 0.520095 0.517925
35 2 0.496604 0.512305 0.511773
78 2 0.468904 0.519645 0.509951
2 2 0.494488 0.518145 0.528592
12 2 0.527428 0.504807 0.502997
109 2 0.504117 0.501995 0.520749
126 2 0.523152 0.510849 0.521944
76 2 0.508908 0.522384 0.518028
118 2 0.525723 0.522896 0.510369
32 2 0.513445 0.508921 0.508146
115 1 0.52472 0.52531 0.526362
64 2 0.510518 0.513063 0.532388
81 2 0.538154 0.51117 0.513221
51 1 0.538875 0.517481 0.530078
130 1 0.535088 0.500658 0.530271
1 1 0.48655 0.548844 0.493725
19 1 0.485187 0.54185 0.514732
121 1 0.479647 0.531755 0.502566
23 1 0.494645 0.527729 0.510035
75 1 0.475872 0.531488 0.526211
61 1 0.498531 0.53768 0.523376
25 2 0.49929 0.543378 0.504448
48 2 0.510826 0.532271 0.502155
120 1 0.514386 0.539949 0.517893
127 1 0.506239 0.545508 0.48991
43 1 0.541254 0.527429 0.516395
87 1 0.481274 0.490099 0.533667
84 2 0.499054 0.495349 0.534492
46 1 0.506082 0.466857 0.529399
80 1 0.512579 0.483036 0.539124
52 2 0.517899 0.497765 0.535714
119 1 0.507435 0.505932 0.545901
59 1 0.490869 0.509096 0.541348
100 1 0.475723 0.515452 0.533653
65 1 0.490819 0.533716 0.53785
138 1 0.503946 0.522924 0.543915
41 1 0.509753 0.531301 0.532024
31 1 0.524693 0.515323 0.539841
ITEM: TIMESTEP
10525000
ITEM: NUMBER OF ATOMS
141
ITEM: BOX BOUNDS pp pp pp
0.0000000000000000e+00 1.4356000000000000e+02
0.0000000000000000e+00 1.4356000000000000e+02
0.0000000000000000e+00 1.4356000000000000e+02
ITEM: ATOMS id type xs ys zs
101 1 0.485418 0.493738 0.469941
70 1 0.490044 0.483439 0.459237
98 1 0.501739 0.468072 0.460326
30 1 0.509975 0.483751 0.454464
47 1 0.520722 0.497886 0.45449
34 2 0.514901 0.477505 0.469186
136 1 0.529988 0.486131 0.463626
139 1 0.526378 0.46353 0.476456
124 1 0.472342 0.520119 0.477024
112 1 0.488078 0.505485 0.457859
56 2 0.50046 0.503889 0.472881
105 1 0.480974 0.522314 0.459025
55 2 0.472384 0.508659 0.464197
104 2 0.498641 0.519286 0.462051
36 1 0.503692 0.498615 0.45784
116 2 0.509184 0.531459 0.471063
54 2 0.513299 0.511441 0.463268
95 2 0.527395 0.505005 0.469283
20 2 0.48844 0.530243 0.471254
21 1 0.463025 0.472556 0.492711
57 2 0.479367 0.4678 0.486021
38 1 0.489032 0.460332 0.470734
77 1 0.49551 0.4555 0.48484
69 2 0.510091 0.465918 0.480981
33 2 0.522661 0.468657 0.493486
50 1 0.466232 0.479197 0.475258
17 1 0.450225 0.495067 0.49555
49 1 0.471568 0.491818 0.464579
14 2 0.466494 0.48876 0.490834
117 1 0.456891 0.493475 0.477556
29 1 0.480795 0.474194 0.467995
129 2 0.500694 0.487573 0.471874
91 2 0.479241 0.483615 0.48355
99 2 0.480054 0.498044 0.496297
108 2 0.493435 0.488353 0.486722
67 2 0.476055 0.501515 0.47994
122 2 0.47766 0.480397 0.49997
94 2 0.495778 0.473448 0.478793
131 2 0.516173 0.492351 0.474028
92 2 0.506744 0.465895 0.498501
26 2 0.512022 0.481874 0.488374
90 2 0.526922 0.481281 0.479607
72 2 0.523331 0.496095 0.488559
8 2 0.516772 0.495248 0.504318
140 1 0.537986 0.467058 0.492656
128 2 0.53254 0.483853 0.494995
22 2 0.539777 0.494681 0.481605
107 1 0.458393 0.510401 0.483386
18 1 0.464698 0.526656 0.492407
78 2 0.464867 0.50294 0.497757
114 2 0.474942 0.514462 0.492616
106 2 0.487267 0.513316 0.473898
102 2 0.492457 0.506209 0.487879
11 2 0.488198 0.524 0.486966
7 2 0.499955 0.501119 0.500706
83 2 0.507233 0.497882 0.487191
93 2 0.501681 0.518316 0.480493
97 2 0.518619 0.511091 0.48164
110 2 0.508404 0.513883 0.493853
141 2 0.524724 0.511486 0.497586
16 1 0.551271 0.50293 0.490521
15 2 0.537811 0.51166 0.483907
53 1 0.52372 0.525371 0.472972
62 1 0.546832 0.515317 0.500206
4 2 0.536844 0.502315 0.497646
111 1 0.472326 0.537507 0.484509
133 2 0.510432 0.530269 0.488296
37 1 0.495064 0.540048 0.483211
25 2 0.498864 0.528944 0.499275
68 2 0.526499 0.523036 0.48958
48 2 0.507946 0.542385 0.501945
39 1 0.488975 0.457586 0.498243
134 1 0.473412 0.465799 0.503592
60 2 0.493353 0.46923 0.511747
113 1 0.499875 0.452581 0.510753
74 1 0.520495 0.471985 0.524377
44 1 0.515613 0.463732 0.511754
46 1 0.502788 0.46219 0.525616
135 1 0.462278 0.477502 0.507228
28 1 0.465664 0.488164 0.523594
79 1 0.454099 0.496136 0.514011
24 2 0.470433 0.49173 0.507844
71 2 0.493271 0.473111 0.493719
13 2 0.480664 0.49715 0.52204
58 2 0.477876 0.478752 0.515631
132 2 0.489839 0.488432 0.50719
9 2 0.493125 0.483342 0.523699
88 2 0.505554 0.477164 0.516643
10 2 0.517755 0.488732 0.519722
3 2 0.517397 0.479815 0.504941
73 2 0.503128 0.484158 0.501031
103 2 0.50133 0.49612 0.516052
126 2 0.530622 0.493258 0.50967
27 1 0.549087 0.48896 0.498292
40 2 0.546208 0.487838 0.514687
125 2 0.532207 0.475075 0.510719
89 1 0.533481 0.484401 0.524404
130 1 0.538931 0.498994 0.52545
6 2 0.465728 0.507321 0.519717
82 1 0.460851 0.517512 0.505566
121 1 0.471247 0.526567 0.517418
45 1 0.491105 0.515564 0.501767
5 2 0.47799 0.525338 0.503062
85 2 0.478148 0.508905 0.509401
96 2 0.487138 0.526628 0.516471
35 2 0.495853 0.511605 0.517757
137 2 0.481462 0.513523 0.525275
2 2 0.504242 0.523595 0.514896
66 2 0.514787 0.525725 0.503069
12 2 0.511578 0.509956 0.512427
76 2 0.520038 0.521865 0.521249
118 2 0.530488 0.509317 0.514464
32 2 0.522488 0.502949 0.529158
81 2 0.546655 0.504097 0.510644
51 1 0.535621 0.518407 0.528311
43 1 0.531747 0.524576 0.507995
1 1 0.477427 0.541559 0.514765
127 1 0.484487 0.539634 0.494395
23 1 0.492721 0.541735 0.508434
61 1 0.50963 0.542051 0.520284
120 1 0.527802 0.538209 0.497308
65 1 0.522838 0.537523 0.513384
63 1 0.487743 0.466258 0.525651
42 1 0.493711 0.473834 0.542478
86 1 0.480824 0.487186 0.537018
80 1 0.497168 0.490834 0.543264
123 1 0.507337 0.477459 0.534489
52 2 0.524855 0.489736 0.537508
109 2 0.507337 0.494917 0.531377
100 1 0.46572 0.517965 0.536116
87 1 0.471752 0.501025 0.535486
84 2 0.492368 0.502611 0.531783
59 1 0.481643 0.512901 0.541867
64 2 0.493711 0.52195 0.533214
31 1 0.499196 0.510382 0.545568
75 1 0.475688 0.529267 0.533441
115 1 0.520554 0.518674 0.537711
119 1 0.513775 0.502373 0.54488
41 1 0.507615 0.514193 0.530731
138 1 0.510557 0.532043 0.533207
19 1 0.491664 0.536949 0.5292
ITEM: TIMESTEP
10530000
ITEM: NUMBER OF ATOMS
141
ITEM: BOX BOUNDS pp pp pp
0.0000000000000000e+00 1.4356000000000000e+02
0.0000000000000000e+00 1.4356000000000000e+02
0.0000000000000000e+00 1.4356000000000000e+02
ITEM: ATOMS id type xs ys zs
49 1 0.476272 0.482124 0.464591
94 2 0.492395 0.481068 0.46923
112 1 0.486229 0.492678 0.454565
56 2 0.494183 0.495642 0.469574
70 1 0.502061 0.488503 0.455206
98 1 0.513173 0.478357 0.459946
47 1 0.518379 0.495221 0.457893
129 2 0.508051 0.48511 0.475061
30 1 0.530028 0.484205 0.458464
104 2 0.48606 0.510833 0.459843
101 1 0.474589 0.500832 0.466564
55 2 0.478475 0.517545 0.473586
36 1 0.503663 0.507011 0.456557
54 2 0.516878 0.514207 0.465993
116 2 0.505275 0.525243 0.462956
97 2 0.510651 0.500373 0.471648
95 2 0.541256 0.506943 0.479958
105 1 0.489133 0.528567 0.463601
50 1 0.479441 0.456028 0.486483
69 2 0.495048 0.460437 0.487623
38 1 0.487601 0.466126 0.474297
39 1 0.476158 0.457989 0.502616
140 1 0.513774 0.459866 0.483176
92 2 0.505625 0.469735 0.494998
125 2 0.519481 0.463796 0.500514
21 1 0.464258 0.468737 0.494173
17 1 0.453479 0.48431 0.489202
14 2 0.467327 0.49063 0.4782
29 1 0.47112 0.470674 0.478857
122 2 0.470653 0.483713 0.493844
57 2 0.481858 0.471564 0.491329
91 2 0.482861 0.484693 0.481259
99 2 0.487422 0.48907 0.49743
108 2 0.497347 0.477116 0.484018
102 2 0.49729 0.498129 0.485158
34 2 0.504575 0.467298 0.469515
139 1 0.521939 0.468902 0.470246
33 2 0.518413 0.478777 0.487327
26 2 0.5042 0.486756 0.495227
90 2 0.524425 0.484829 0.472837
83 2 0.519223 0.495558 0.483288