LAMMPS (2 Aug 2023 - Update 3)
OMP_NUM_THREADS environment is not set. Defaulting to 1 thread. (src/comm.cpp:98)
  using 1 OpenMP thread(s) per MPI task
# Initialization
units metal
boundary p p p
atom_style atomic

# Generate NiCu nanoparticles
variable A0 equal 3.589
lattice fcc ${A0}
lattice fcc 3.589
Lattice spacing in x,y,z = 3.589 3.589 3.589
region mybox block 0 40 0 40 0 40
create_box 2 mybox                         # 2 types of atoms
Created orthogonal box = (0 0 0) to (143.56 143.56 143.56)
  1 by 1 by 1 MPI processor grid
region CuNi_nano sphere 20 20 20 2
create_atoms 1 region CuNi_nano
Created 141 atoms
  using lattice units in orthogonal box = (0 0 0) to (143.56 143.56 143.56)
  create_atoms CPU = 0.001 seconds
set type 1 type/fraction 2 0.5 6666
Setting atom values ...
  76 settings made for type/fraction
mass 1 63.54600000                         # Cu
mass 2 58.69340000                         # Ni

# Using eam potential
pair_style eam/alloy
pair_coeff * * CuNi.eam.alloy Cu Ni
Reading eam/alloy potential file CuNi.eam.alloy with DATE: 2014-07-11
write_data nanoparticle.cif
System init for write_data ...
Neighbor list info ...
  update: every = 1 steps, delay = 0 steps, check = yes
  max neighbors/atom: 2000, page size: 100000
  master list distance cutoff = 8.3943324
  ghost atom cutoff = 8.3943324
  binsize = 4.1971662, bins = 35 35 35
  1 neighbor lists, perpetual/occasional/extra = 1 0 0
  (1) pair eam/alloy, perpetual
      attributes: half, newton on
      pair build: half/bin/atomonly/newton
      stencil: half/bin/3d
      bin: standard
run 0
WARNING: No fixes with time integration, atoms won't move (src/verlet.cpp:60)
Per MPI rank memory allocation (min/avg/max) = 3.551 | 3.551 | 3.551 Mbytes
   Step          Temp          E_pair         E_mol          TotEng         Press     
         0   0             -432.52609      0             -432.52609     -37.277343    
Loop time of 1.088e-06 on 1 procs for 0 steps with 141 atoms

0.0% CPU use with 1 MPI tasks x 1 OpenMP threads

MPI task timing breakdown:
Section |  min time  |  avg time  |  max time  |%varavg| %total
---------------------------------------------------------------
Pair    | 0          | 0          | 0          |   0.0 |  0.00
Neigh   | 0          | 0          | 0          |   0.0 |  0.00
Comm    | 0          | 0          | 0          |   0.0 |  0.00
Output  | 0          | 0          | 0          |   0.0 |  0.00
Modify  | 0          | 0          | 0          |   0.0 |  0.00
Other   |            | 1.088e-06  |            |       |100.00

Nlocal:            141 ave         141 max         141 min
Histogram: 1 0 0 0 0 0 0 0 0 0
Nghost:              0 ave           0 max           0 min
Histogram: 1 0 0 0 0 0 0 0 0 0
Neighs:           5795 ave        5795 max        5795 min
Histogram: 1 0 0 0 0 0 0 0 0 0

Total # of neighbors = 5795
Ave neighs/atom = 41.099291
Neighbor list builds = 0
Dangerous builds = 0

# Thermal equilibrium step
thermo 1000
variable j loop 0 20
label loop_j
variable temperature equal 900+10*$j
variable temperature equal 900+10*0
variable T equal temp
variable Eatom equal etotal/atoms
fix 1 all nvt temp ${temperature} ${temperature} 0.1
fix 1 all nvt temp 900 ${temperature} 0.1
fix 1 all nvt temp 900 900 0.1
run 50000
Per MPI rank memory allocation (min/avg/max) = 3.551 | 3.551 | 3.551 Mbytes
   Step          Temp          E_pair         E_mol          TotEng         Press     
         0   0             -432.52609      0             -432.52609     -37.277343    
      1000   1091.8216     -415.69743      0             -395.93937     -15.157615    
      2000   857.93689     -416.04545      0             -400.51986     -1.5561378    
      3000   898.04305     -419.72659      0             -403.47523     -0.69727055   
      4000   828.82212     -414.73907      0             -399.74035     -1.6266313    
      5000   886.22412     -419.63047      0             -403.59299     -2.2969558    
      6000   916.97315     -417.42679      0             -400.83286     -12.182215    
      7000   820.2575      -421.44109      0             -406.59736     -1.3912315    
      8000   990.75125     -418.72375      0             -400.7947      -5.9955922    
      9000   888.14099     -420.52724      0             -404.45507      2.4913538    
     10000   988.28248     -421.66751      0             -403.78314      1.1157792    
     11000   927.493       -420.17653      0             -403.39222     -3.2087865    
     12000   1030.9179     -421.37533      0             -402.71941     -0.22272051   
     13000   928.31209     -422.76147      0             -405.96235     -4.9888844    
     14000   865.10883     -418.47133      0             -402.81595      9.6973512    
     15000   960.83483     -418.91176      0             -401.52409      6.9243969    
     16000   886.09544     -421.15774      0             -405.12258      6.1868643    
     17000   820.59999     -421.65734      0             -406.80741     -5.8701574    
     18000   898.06565     -420.55063      0             -404.29885     -2.5072609    
     19000   881.76671     -420.77987      0             -404.82305      4.4369781    
     20000   849.40288     -420.29684      0             -404.92568      4.2210321    
     21000   936.13312     -419.41986      0             -402.4792       0.7359711    
     22000   889.52398     -422.7759       0             -406.6787      -2.5922878    
     23000   983.49026     -421.09198      0             -403.29433     -7.1783391    
     24000   927.34392     -423.17558      0             -406.39397      2.9387688    
     25000   928.08061     -419.82491      0             -403.02997      0.96148184   
     26000   985.50844     -422.64687      0             -404.8127      -2.7612594    
     27000   849.34938     -422.918        0             -407.54782      1.3008953    
     28000   1014.6735     -421.33         0             -402.96804      8.9251266    
     29000   916.52463     -421.48178      0             -404.89597     -5.4691988    
     30000   902.67629     -421.29778      0             -404.96257     -2.8339305    
     31000   932.51247     -422.88915      0             -406.01401     -3.6769993    
     32000   931.77263     -420.98713      0             -404.12539     -7.3692402    
     33000   909.46538     -424.70704      0             -408.24898      1.8690719    
     34000   967.99087     -422.4984       0             -404.98123      7.5375117    
     35000   939.02633     -424.20263      0             -407.20962      2.7970051    
     36000   1047.8894     -423.12115      0             -404.1581       1.616388     
     37000   855.27848     -424.62085      0             -409.14337      7.7277437    
     38000   826.18094     -423.3339       0             -408.38298     -0.48167211   
     39000   903.70812     -425.30087      0             -408.94698      4.9081912    
     40000   820.933       -419.5921       0             -404.73616     -5.6606713    
     41000   862.68423     -422.00015      0             -406.38866      0.65559055   
     42000   873.67296     -424.30473      0             -408.49437     -10.028005    
     43000   919.32492     -422.93706      0             -406.30057     -6.0503392    
     44000   873.0836      -424.65037      0             -408.85068     -2.4697159    
     45000   857.86858     -421.87572      0             -406.35137      3.6185485    
     46000   879.81974     -424.86905      0             -408.94747     -6.317293     
     47000   950.13647     -425.37726      0             -408.18319     -0.92230319   
     48000   903.69856     -426.14092      0             -409.78721     -5.1753056    
     49000   924.22564     -426.83588      0             -410.1107      -7.0460319    
     50000   866.34642     -424.39896      0             -408.72119      4.571148     
Loop time of 11.1157 on 1 procs for 50000 steps with 141 atoms

Performance: 388.641 ns/day, 0.062 hours/ns, 4498.155 timesteps/s, 634.240 katom-step/s
100.0% CPU use with 1 MPI tasks x 1 OpenMP threads

MPI task timing breakdown:
Section |  min time  |  avg time  |  max time  |%varavg| %total
---------------------------------------------------------------
Pair    | 10.856     | 10.856     | 10.856     |   0.0 | 97.67
Neigh   | 0.054193   | 0.054193   | 0.054193   |   0.0 |  0.49
Comm    | 0.01085    | 0.01085    | 0.01085    |   0.0 |  0.10
Output  | 0.00052364 | 0.00052364 | 0.00052364 |   0.0 |  0.00
Modify  | 0.16064    | 0.16064    | 0.16064    |   0.0 |  1.45
Other   |            | 0.03298    |            |       |  0.30

Nlocal:            141 ave         141 max         141 min
Histogram: 1 0 0 0 0 0 0 0 0 0
Nghost:              0 ave           0 max           0 min
Histogram: 1 0 0 0 0 0 0 0 0 0
Neighs:           5968 ave        5968 max        5968 min
Histogram: 1 0 0 0 0 0 0 0 0 0

Total # of neighbors = 5968
Ave neighs/atom = 42.326241
Neighbor list builds = 439
Dangerous builds = 0
unfix 1

# Statistical step
fix 2 all ave/time 100 5 1000 v_T v_Eatom file data_ave${temperature}.txt
fix 2 all ave/time 100 5 1000 v_T v_Eatom file data_ave900.txt
dump 1 all atom 5000 fusion_${temperature}.atom
dump 1 all atom 5000 fusion_900.atom
fix 1 all nvt temp ${temperature} ${temperature} 0.1
fix 1 all nvt temp 900 ${temperature} 0.1
fix 1 all nvt temp 900 900 0.1
run 500000
Per MPI rank memory allocation (min/avg/max) = 3.551 | 3.551 | 3.551 Mbytes
   Step          Temp          E_pair         E_mol          TotEng         Press     
     50000   866.34642     -424.39896      0             -408.72119      4.571148     
     51000   961.66676     -425.3868       0             -407.98408     -2.9074889    
     52000   981.1998      -423.19354      0             -405.43734      0.72153111   
     53000   841.52147     -424.81436      0             -409.58583     -7.9979033    
     54000   892.72108     -424.59101      0             -408.43595      1.9209906    
     55000   871.68115     -423.72173      0             -407.94742     -4.6212201    
     56000   790.32802     -426.03908      0             -411.73697     -2.5353186    
     57000   916.45919     -427.1478       0             -410.56316      3.3462422    
     58000   798.1169      -424.02913      0             -409.58607     -0.84797436   
     59000   864.2345      -423.39254      0             -407.75299     -1.3717549    
     60000   995.43775     -424.10299      0             -406.08913      3.173866     
     61000   1015.8423     -424.77308      0             -406.38997      3.8184802    
     62000   941.71212     -426.5682       0             -409.52658      3.9541195    
     63000   869.19687     -423.94363      0             -408.21428      1.9651096    
     64000   1035.2532     -426.74462      0             -408.01024      3.1005643    
     65000   758.78013     -426.24081      0             -412.50961     -0.72946542   
     66000   989.16685     -426.79211      0             -408.89174     -4.7618147    
     67000   890.00661     -426.6882       0             -410.58226     -4.072581     
     68000   918.85362     -424.18988      0             -407.56192     -8.9936025    
     69000   875.70692     -427.82745      0             -411.98029     -4.3187992    
     70000   833.76455     -429.10164      0             -414.01349     -0.072703204  
     71000   846.54362     -428.09014      0             -412.77073      0.17116144   
     72000   894.07176     -428.33757      0             -412.15807     -4.0049836    
     73000   908.8085      -429.97464      0             -413.52846     -5.7395567    
     74000   778.43473     -427.63332      0             -413.54644      1.471473     
     75000   929.76573     -428.81498      0             -411.98954     -1.4007247    
     76000   1001.0626     -430.22687      0             -412.11122      2.7002569    
     77000   922.27318     -426.87623      0             -410.18638     -3.7986294    
     78000   956.34706     -427.39011      0             -410.08365     -3.5861272    
     79000   846.2844      -430.14669      0             -414.83197     -7.7620987    
     80000   923.87609     -426.90177      0             -410.18292     -9.956536     
     81000   898.87331     -426.26657      0             -410.00018     -6.6704532    
     82000   799.01213     -426.97342      0             -412.51416      2.1669608    
     83000   924.7823      -426.79279      0             -410.05754      0.25374504   
     84000   936.41586     -427.8754       0             -410.92963     -7.4329824    
     85000   780.10384     -425.83916      0             -411.72207     -1.8482675    
     86000   1011.7199     -425.31938      0             -407.01087     -8.8386805    
     87000   953.95721     -427.79799      0             -410.53478     -5.7241309    
     88000   930.4683      -427.50639      0             -410.66824     -5.122162     
     89000   869.89106     -429.62443      0             -413.88252     -5.5499749    
     90000   907.97286     -428.60105      0             -412.16999     -0.54075267   
     91000   907.07312     -428.87519      0             -412.46041     -9.1531594    
     92000   841.28143     -427.22955      0             -412.00537     -15.93467     
     93000   843.48194     -425.3939       0             -410.1299      -1.3342449    
     94000   855.75438     -426.78222      0             -411.29613     -6.5662767    
     95000   954.59116     -426.99924      0             -409.72456     -10.136519    
     96000   920.78742     -428.98594      0             -412.32298      0.79456914   
     97000   1005.131      -428.26681      0             -410.07754     -2.4271223    
     98000   909.07978     -429.99163      0             -413.54054      3.724982     
     99000   972.59703     -428.53866      0             -410.93814     -5.3383818    
    100000   854.39273     -428.24935      0             -412.7879      -4.0286734    
    101000   879.61259     -426.6031       0             -410.68527     -6.3164384    
    102000   913.46035     -428.57752      0             -412.04716      8.6445185    
    103000   893.66538     -423.21224      0             -407.0401       4.7814455    
    104000   922.06797     -428.59188      0             -411.90575     -3.2033593    
    105000   836.46        -429.17183      0             -414.0349      -5.7050311    
    106000   855.72113     -428.17392      0             -412.68843     -7.9148232    
    107000   860.64995     -423.75054      0             -408.17586     -7.1089376    
    108000   788.97583     -426.28279      0             -412.00515     -7.1386839    
    109000   905.68118     -425.78974      0             -409.40016     -6.8013918    
    110000   874.54576     -425.97441      0             -410.14826     -0.85731948   
    111000   821.4605      -425.36315      0             -410.49765     -9.3196157    
    112000   855.21526     -424.46934      0             -408.99301     -7.3847519    
    113000   905.49305     -428.63805      0             -412.25187     -5.1190852    
    114000   968.80844     -426.96257      0             -409.43061     -7.2083047    
    115000   896.39441     -425.62419      0             -409.40266      5.4512756    
    116000   975.40653     -429.62445      0             -411.97309     -5.635947     
    117000   965.29171     -428.18224      0             -410.71392      3.6632543    
    118000   900.98977     -425.61512      0             -409.31043      8.1628058    
    119000   856.31056     -428.43171      0             -412.93555      5.8967801    
    120000   913.37597     -428.12593      0             -411.5971      -3.0552431    
    121000   859.91129     -425.65416      0             -410.09284     -2.8868725    
    122000   1028.2823     -426.6576       0             -408.04937      4.6352451    
    123000   928.50005     -430.72489      0             -413.92236     -5.9680613    
    124000   897.61786     -427.07739      0             -410.83372      0.58448727   
    125000   1017.6279     -425.63637      0             -407.22094     -5.044815     
    126000   903.6627      -425.3465       0             -408.99344     -4.7287183    
    127000   837.21708     -427.17807      0             -412.02744      1.035603     
    128000   858.47298     -429.64878      0             -414.11349      1.3102968    
    129000   785.78761     -426.8451       0             -412.62516      4.9604629    
    130000   875.11589     -428.21247      0             -412.376        12.294023    
    131000   928.83065     -426.09799      0             -409.28948      10.619918    
    132000   782.93845     -427.73104      0             -413.56266      1.2942793    
    133000   937.31454     -425.46071      0             -408.49867      11.632799    
    134000   983.93516     -427.66284      0             -409.85714      0.81419394   
    135000   920.69774     -427.55964      0             -410.8983      -3.2407253    
    136000   989.52054     -426.27549      0             -408.36871     -4.6293353    
    137000   800.12164     -428.44368      0             -413.96434     -0.32088592   
    138000   797.43271     -425.96272      0             -411.53204      0.31171706   
    139000   802.66844     -431.12032      0             -416.5949      -1.3173653    
    140000   1019.3904     -427.3126       0             -408.86529     -6.0316676    
    141000   1005.3581     -428.74519      0             -410.5518       3.4426042    
    142000   950.36412     -429.63331      0             -412.43512      12.062056    
    143000   893.79038     -431.29128      0             -415.11687      14.551836    
    144000   1004.6145     -429.10869      0             -410.92876      11.238892    
    145000   1133.3475     -428.71834      0             -408.20881      5.746462     
    146000   871.16512     -428.87992      0             -413.11495      6.1799108    
    147000   824.59075     -428.74528      0             -413.82314     -7.4197041    
    148000   805.64213     -428.57649      0             -413.99725     -4.50766      
    149000   850.29648     -427.91082      0             -412.52349     -7.9184673    
    150000   888.52894     -428.16082      0             -412.08163      6.0038035    
    151000   932.95762     -427.40143      0             -410.51823      1.9846124    
    152000   868.68334     -429.03332      0             -413.31326      0.95008137   
    153000   844.49999     -427.58825      0             -412.30582      5.9764734    
    154000   881.25736     -427.40724      0             -411.45964      0.11103435   
    155000   905.62877     -430.02668      0             -413.63804      1.9369703    
    156000   918.00835     -429.20055      0             -412.58789      1.3333306    
    157000   1015.1704     -430.21639      0             -411.84544      2.780289     
    158000   942.16669     -429.46098      0             -412.41114      1.7205128    
    159000   1007.0257     -428.91849      0             -410.69493      3.1130116    
    160000   969.87586     -432.0759       0             -414.52462     -1.3014371    
    161000   866.90936     -428.18859      0             -412.50063     -3.2521746    
    162000   996.19807     -429.34791      0             -411.32029     -2.5092757    
    163000   997.68449     -429.78966      0             -411.73514      2.7162515    
    164000   873.12623     -429.79182      0             -413.99136      8.502372     
    165000   936.27825     -430.34213      0             -413.39885      4.7655966    
    166000   890.1666      -427.62049      0             -411.51166      2.4771283    
    167000   827.70456     -429.01635      0             -414.03786     -0.084990838  
    168000   890.34601     -427.00238      0             -410.8903       3.4944881    
    169000   1050.9492     -428.35689      0             -409.33847      1.428817     
    170000   894.53461     -426.75563      0             -410.56775      9.3130721    
    171000   904.72723     -426.1914       0             -409.81908      7.1548166    
    172000   941.91417     -426.90596      0             -409.86069      1.4629509    
    173000   925.81612     -432.18632      0             -415.43236     -0.52228553   
    174000   980.92513     -430.7422       0             -412.99096     -1.3198104    
    175000   878.09168     -428.28075      0             -412.39044      0.1032299    
    176000   799.53199     -429.77594      0             -415.30727     -3.1615433    
    177000   829.44048     -429.91059      0             -414.90068     -4.1336949    
    178000   848.89061     -429.33686      0             -413.97498     -3.3553417    
    179000   974.65674     -427.67958      0             -410.04178      0.72899443   
    180000   973.0524      -427.61121      0             -410.00244      7.4296559    
    181000   746.62936     -428.6169       0             -415.10558      2.1991193    
    182000   922.97426     -428.94987      0             -412.24734     -2.7308665    
    183000   957.66952     -429.26006      0             -411.92967      3.5483788    
    184000   883.73289     -429.31183      0             -413.31943     -1.6134556    
    185000   986.5007      -431.30657      0             -413.45444     -3.209931     
    186000   937.04178     -427.19225      0             -410.23515     -4.8792417    
    187000   871.38753     -431.20737      0             -415.43838      9.7192169    
    188000   896.09487     -427.05505      0             -410.83894      7.8673025    
    189000   937.32547     -427.52183      0             -410.5596       7.6046261    
    190000   1013.6779     -431.92946      0             -413.58552      1.4791264    
    191000   911.14212     -428.58348      0             -412.09507      5.421455     
    192000   983.61572     -428.37668      0             -410.57675      7.499293     
    193000   844.86738     -429.56231      0             -414.27324      3.8192513    
    194000   874.1562      -427.54264      0             -411.72354      0.95616871   
    195000   925.22982     -431.91367      0             -415.17033      1.6100638    
    196000   873.53661     -430.33931      0             -414.53142      10.521189    
    197000   903.33383     -431.57163      0             -415.22453      8.6941028    
    198000   911.10248     -429.49505      0             -413.00735     -2.0342535    
    199000   861.0539      -430.30177      0             -414.71978      7.4998656    
    200000   868.25193     -432.08294      0             -416.37069      7.9815174    
    201000   904.28491     -427.47842      0             -411.11411      8.3515431    
    202000   869.24602     -428.15998      0             -412.42974      13.037993    
    203000   931.72036     -429.58046      0             -412.71966      3.9552905    
    204000   920.04363     -428.12166      0             -411.47216      6.3624866    
    205000   877.15624     -427.86012      0             -411.98674      12.749532    
    206000   897.80776     -429.70372      0             -413.45661      9.004899     
    207000   916.38692     -429.00855      0             -412.42522      1.198176     
    208000   840.63534     -429.84151      0             -414.62902     -0.85037477   
    209000   993.85158     -429.79268      0             -411.80752      4.8889332    
    210000   917.22253     -429.05419      0             -412.45574      6.9439461    
    211000   919.1262      -429.42708      0             -412.79418     -0.78855679   
    212000   976.6545      -429.12252      0             -411.44857     -3.3330955    
    213000   918.40678     -427.21536      0             -410.59549      1.6332486    
    214000   901.13755     -430.27881      0             -413.97145     -0.96531421   
    215000   1003.1727     -429.86217      0             -411.70834      2.6451835    
    216000   836.02891     -427.62493      0             -412.4958      -0.42608338   
    217000   889.79518     -429.34563      0             -413.24353     -1.9349588    
    218000   888.25485     -426.30674      0             -410.23251     -8.1138074    
    219000   850.9991      -427.477        0             -412.07696     -7.7201091    
    220000   902.23599     -429.58069      0             -413.25345     -0.86577306   
    221000   952.79849     -429.61502      0             -412.37278      3.1434044    
    222000   947.53253     -430.00748      0             -412.86053     -0.091889161  
    223000   916.67464     -427.70647      0             -411.11794      3.487657     
    224000   977.63197     -429.14532      0             -411.45368     -1.3069752    
    225000   864.56972     -428.71542      0             -413.0698       0.30890846   
    226000   876.04772     -426.92392      0             -411.0706       6.2771084    
    227000   987.19902     -429.20867      0             -411.3439       6.9227817    
    228000   885.45604     -430.13731      0             -414.11373      1.492766     
    229000   876.40684     -427.15516      0             -411.29534      9.536581     
    230000   813.87706     -425.3608       0             -410.63254      4.0608585    
    231000   1007.5558     -429.53281      0             -411.29965      0.57952331   
    232000   926.68015     -428.77979      0             -412.01019     -3.8699307    
    233000   865.12626     -431.02866      0             -415.37297      9.6046534    
    234000   808.80204     -431.38385      0             -416.74742      0.48957725   
    235000   1012.5038     -429.60338      0             -411.28069      4.4661396    
    236000   994.98731     -428.16633      0             -410.16062      3.5125201    
    237000   856.37444     -429.74671      0             -414.2494       10.873203    
    238000   981.79025     -429.4004       0             -411.63351     -8.7568002    
    239000   859.48766     -429.34149      0             -413.78784     -0.55507051   
    240000   890.12833     -427.36186      0             -411.25373     -3.5506082    
    241000   901.84573     -428.66779      0             -412.34761      4.7708736    
    242000   958.51201     -429.19991      0             -411.85427      5.4979351    
    243000   760.32045     -427.1506       0             -413.39152      2.4210404    
    244000   859.42742     -428.75731      0             -413.20475     -0.024277567  
    245000   849.1815      -428.02259      0             -412.65544     -6.909788     
    246000   914.32577     -427.05382      0             -410.50779     -7.3559771    
    247000   872.73189     -427.2999       0             -411.50658     -2.9644072    
    248000   859.11766     -427.50684      0             -411.95989      2.5240993    
    249000   896.77327     -429.8664       0             -413.63802      1.7514005    
    250000   943.57898     -430.13139      0             -413.05599      2.0237994    
    251000   927.2954      -430.5317       0             -413.75098     -1.6012415    
    252000   876.89692     -431.49375      0             -415.62505     -2.257916     
    253000   938.87864     -431.19085      0             -414.2005      -4.7264333    
    254000   774.87901     -431.18433      0             -417.16179     -3.0708901    
    255000   963.65426     -431.12385      0             -413.68516     -3.5228724    
    256000   959.54008     -427.13424      0             -409.77        -4.2001331    
    257000   939.15948     -430.33745      0             -413.34203     -1.8110205    
    258000   953.00919     -428.7916       0             -411.54555      3.3968994    
    259000   958.33714     -429.31201      0             -411.96954     -3.8588644    
    260000   847.71886     -431.18094      0             -415.84026      3.8967573    
    261000   859.82914     -431.30203      0             -415.7422       3.3248686    
    262000   978.86188     -429.76366      0             -412.04976      3.6109199    
    263000   1024.2264     -430.24319      0             -411.70836     -1.712826     
    264000   1009.2701     -429.66099      0             -411.39682      4.1694322    
    265000   983.42618     -433.99756      0             -416.20107      8.2122617    
    266000   1037.6113     -436.36872      0             -417.59167      5.2621753    
    267000   929.18676     -435.30007      0             -418.48512      2.5661805    
    268000   832.23704     -436.22246      0             -421.16194     -10.419173    
    269000   851.11599     -436.76349      0             -421.36134     -8.0282949    
    270000   911.40742     -434.21631      0             -417.7231       2.8799761    
    271000   963.73402     -436.25215      0             -418.81202      4.1176857    
    272000   961.94573     -435.30889      0             -417.90112     -0.6837976    
    273000   920.71306     -434.6789       0             -418.01729      2.8996345    
    274000   894.21249     -432.95918      0             -416.77714      10.438085    
    275000   986.20544     -435.10891      0             -417.26212     -2.3921331    
    276000   873.56846     -433.79941      0             -417.99095      5.9806783    
    277000   854.99104     -433.29446      0             -417.82219     -3.083755     
    278000   794.22738     -435.6738       0             -421.30112     -1.4041873    
    279000   860.74139     -435.11506      0             -419.53872      2.8967954    
    280000   877.43714     -436.60275      0             -420.72428      1.4756146    
    281000   991.75289     -435.02968      0             -417.08251      0.42297283   
    282000   907.0509      -438.04121      0             -421.62684     -9.0796302    
    283000   890.81981     -435.00105      0             -418.8804      -5.8755028    
    284000   897.06164     -435.67781      0             -419.4442      -1.3040994    
    285000   1029.3862     -437.07296      0             -418.44476     -4.3789315    
    286000   865.72226     -435.80624      0             -420.13976      0.75476146   
    287000   869.91084     -432.08499      0             -416.34272      7.0179552    
    288000   847.70077     -438.21958      0             -422.87923      9.6158376    
    289000   1008.4503     -436.83778      0             -418.58844      3.4487384    
    290000   975.4248      -439.37731      0             -421.72561      3.7631381    
    291000   1019.6323     -434.59533      0             -416.14364      4.0277231    
    292000   869.84798     -436.32854      0             -420.58741     -0.50857587   
    293000   851.58839     -434.00564      0             -418.59494     -5.0106087    
    294000   796.78528     -436.93226      0             -422.5133       3.7785342    
    295000   868.73434     -435.60859      0             -419.88761      0.82131863   
    296000   848.0236      -436.35641      0             -421.01022      0.263264     
    297000   887.41185     -439.03571      0             -422.97673      7.7319742    
    298000   867.84494     -435.3096       0             -419.60472      3.9448148    
    299000   911.33249     -434.91438      0             -418.42252     -0.70422995   
    300000   961.01667     -437.93514      0             -420.54418      9.2718777    
    301000   874.90157     -434.05551      0             -418.22293      13.70128     
    302000   972.38825     -436.42677      0             -418.83002      2.0513671    
    303000   890.46331     -436.00014      0             -419.88594      3.2823565    
    304000   1070.229      -436.26748      0             -416.90016      3.3751054    
    305000   849.31733     -435.58997      0             -420.22037      0.52681896   
    306000   875.91257     -434.06015      0             -418.20927     -6.7244347    
    307000   731.05354     -435.12054      0             -421.89109     -10.055077    
    308000   844.36232     -434.78229      0             -419.50235     -4.0392255    
    309000   904.8077      -436.89148      0             -420.5177      -4.7827484    
    310000   948.38328     -435.40813      0             -418.24578     -2.5685845    
    311000   897.39217     -433.41397      0             -417.17438     -9.4924634    
    312000   874.19158     -437.09153      0             -421.27179      1.1872495    
    313000   838.67131     -434.13373      0             -418.95678      1.2584004    
    314000   920.51691     -435.06905      0             -418.41099     -4.860163     
    315000   797.11116     -435.44525      0             -421.02039      0.24152456   
    316000   788.66993     -436.57839      0             -422.30629      3.9706017    
    317000   856.98195     -436.24411      0             -420.7358      -5.4076078    
    318000   901.23319     -435.94348      0             -419.63438     -6.5425529    
    319000   969.76609     -439.35645      0             -421.80716      1.0851713    
    320000   970.21983     -434.07077      0             -416.51326      0.84608813   
    321000   902.94646     -438.39146      0             -422.05136      8.5965186    
    322000   897.43484     -436.26925      0             -420.02889     -4.8831823    
    323000   785.27282     -438.1374       0             -423.92677     -12.404934    
    324000   1031.3841     -435.945        0             -417.28064     -7.9506477    
    325000   907.65706     -436.07811      0             -419.65277     -3.6176307    
    326000   886.67695     -436.49127      0             -420.44559      0.92126273   
    327000   810.05034     -436.14682      0             -421.48781      1.2290289    
    328000   927.80636     -437.86165      0             -421.07167      5.7453858    
    329000   821.3551      -434.89833      0             -420.03474      7.3058798    
    330000   937.87809     -436.59928      0             -419.62704     -2.3619039    
    331000   819.14148     -437.64389      0             -422.82036     -2.1520962    
    332000   869.0396      -436.18414      0             -420.45763     -5.5415849    
    333000   844.05759     -437.7552       0             -422.48078     -2.5444963    
    334000   939.37561     -438.7009       0             -421.70156     -0.43877325   
    335000   923.43188     -436.27399      0             -419.56318      4.8502456    
    336000   874.62063     -435.9266       0             -420.0991       2.615618     
    337000   993.52825     -435.94624      0             -417.96694      8.2061278    
    338000   950.40043     -435.29562      0             -418.09677      9.0231017    
    339000   1009.7083     -438.18867      0             -419.91657      6.8720988    
    340000   901.34509     -437.08971      0             -420.77859      1.4695784    
    341000   916.24175     -433.58852      0             -417.00782     -4.8190917    
    342000   806.06367     -436.60721      0             -422.02035     -1.0303601    
    343000   945.84131     -435.79259      0             -418.67625      3.8610804    
    344000   950.4812      -436.9646       0             -419.76429      3.1451084    
    345000   1010.5639     -438.88476      0             -420.59717     -5.7068097    
    346000   841.5661      -436.11841      0             -420.88907     -5.4881682    
    347000   799.27884     -434.91963      0             -420.45554     -2.5311581    
    348000   880.13356     -435.63086      0             -419.70359     -4.4759369    
    349000   821.89945     -435.97876      0             -421.10532     -14.705267    
    350000   884.41964     -438.10022      0             -422.09539     -9.3947283    
    351000   932.58135     -435.98026      0             -419.10387     -10.241288    
    352000   967.6885      -436.70117      0             -419.18947     -1.0673975    
    353000   895.31351     -439.64563      0             -423.44366      4.7081729    
    354000   1003.5529     -435.8689       0             -417.70819      3.401745     
    355000   873.08554     -436.49984      0             -420.70012      0.38702654   
    356000   870.46613     -438.93388      0             -423.18156     -3.0992198    
    357000   857.62515     -433.9821       0             -418.46215     -11.43515     
    358000   976.46937     -438.44908      0             -420.77848     -3.6120757    
    359000   801.57239     -436.10203      0             -421.59644      4.0615044    
    360000   914.71586     -435.05647      0             -418.50339      3.0037288    
    361000   861.4696      -437.7906       0             -422.20108      7.0379099    
    362000   950.83676     -438.83448      0             -421.62774      2.3741202    
    363000   878.64258     -436.40981      0             -420.50952     -6.9866959    
    364000   906.51896     -435.52047      0             -419.11572     -6.6923031    
    365000   870.1832      -435.75452      0             -420.00731     -4.7941121    
    366000   890.44412     -437.60356      0             -421.48971     -3.6996368    
    367000   854.98237     -439.99338      0             -424.52126      0.91490255   
    368000   954.53478     -435.38781      0             -418.11414     -1.7132788    
    369000   950.6906      -436.43646      0             -419.23236     -9.0101287    
    370000   942.06426     -435.83567      0             -418.78767     -0.17847159   
    371000   917.08126     -436.39724      0             -419.80135     -0.99378638   
    372000   1004.0253     -436.15186      0             -417.9826       2.8903712    
    373000   974.63591     -438.76376      0             -421.12634      6.9682796    
    374000   881.91816     -436.95356      0             -420.994        5.0548478    
    375000   873.35573     -435.08313      0             -419.27852     -3.4107419    
    376000   839.06264     -434.56842      0             -419.38439     -4.2708244    
    377000   932.50327     -436.2379       0             -419.36293     -11.596941    
    378000   868.594       -437.73463      0             -422.01619     -4.392626     
    379000   878.77265     -435.74978      0             -419.84714     -6.9076745    
    380000   976.29494     -437.90572      0             -420.23828     -4.4434476    
    381000   876.69933     -437.36957      0             -421.50445      0.36533322   
    382000   991.24894     -438.73078      0             -420.79272      1.4178988    
    383000   999.63619     -435.86886      0             -417.77902     -5.2136129    
    384000   917.5328      -436.95924      0             -420.35518     -4.9778568    
    385000   911.26921     -437.63847      0             -421.14776      2.1426747    
    386000   889.54555     -435.88427      0             -419.78668     -8.3979336    
    387000   865.73405     -435.34968      0             -419.68299      4.8326173    
    388000   826.88686     -439.4801       0             -424.51641      3.5198981    
    389000   990.05179     -436.5117       0             -418.59531      0.83721559   
    390000   953.53951     -436.49575      0             -419.2401      -3.0437215    
    391000   849.76974     -438.31312      0             -422.93533     -3.7445501    
    392000   926.29174     -436.91944      0             -420.15688      7.5510121    
    393000   962.35702     -438.54317      0             -421.12796     -0.058714684  
    394000   880.93184     -436.56945      0             -420.62773     -5.117499     
    395000   917.5479      -435.63125      0             -419.02692     -5.8257258    
    396000   799.76772     -434.59882      0             -420.12588     -3.2863888    
    397000   807.28894     -438.31561      0             -423.70657      4.1477967    
    398000   833.93337     -436.19767      0             -421.10647     -0.79216107   
    399000   900.06721     -435.05328      0             -418.76529     -0.27930989   
    400000   916.97214     -434.73335      0             -418.13944      0.32637266   
    401000   937.15882     -436.77575      0             -419.81653     -1.0771274    
    402000   970.40231     -437.55704      0             -419.99623      3.2486424    
    403000   1028.6555     -435.96862      0             -417.35363     -1.408466     
    404000   763.94425     -438.92925      0             -425.1046      -2.7727244    
    405000   808.80735     -436.38971      0             -421.75319     -11.137821    
    406000   853.18097     -436.23506      0             -420.79554     -5.2524039    
    407000   876.5528      -433.19793      0             -417.33546     -6.2477436    
    408000   887.3402      -434.78538      0             -418.7277      -8.6513597    
    409000   817.26553     -434.61162      0             -419.82204     -1.7472176    
    410000   899.7272      -436.96988      0             -420.68804     -3.6146577    
    411000   878.94315     -437.9637       0             -422.05798     -6.2255053    
    412000   801.70385     -435.42711      0             -420.91914     -3.5296478    
    413000   936.75731     -438.0429       0             -421.09094     -10.957106    
    414000   941.64419     -436.09366      0             -419.05327      1.4822881    
    415000   866.78855     -438.26493      0             -422.57916      5.950162     
    416000   795.03063     -435.25326      0             -420.86605      8.3790798    
    417000   938.16123     -435.14083      0             -418.16347      0.66578501   
    418000   887.65675     -437.57341      0             -421.51         18.140098    
    419000   886.54377     -439.29924      0             -423.25597      4.221319     
    420000   937.0357      -435.35152      0             -418.39453     -11.072751    
    421000   954.69336     -434.41445      0             -417.13792     -8.9384727    
    422000   901.76172     -437.35751      0             -421.03885     -0.14696952   
    423000   854.76963     -437.83224      0             -422.36396     -3.741495     
    424000   876.39527     -437.1038       0             -421.24418     -4.2118527    
    425000   897.98247     -435.24549      0             -418.99522     -2.5218123    
    426000   991.83444     -436.157        0             -418.20835      2.7990772    
    427000   954.79511     -435.60311      0             -418.32474      0.76977046   
    428000   894.28033     -435.88206      0             -419.69879     -7.9663396    
    429000   838.79175     -437.99234      0             -422.81322     -2.5124374    
    430000   899.48207     -436.3989       0             -420.1215      -4.0924855    
    431000   848.54512     -433.60672      0             -418.25109      0.76357422   
    432000   870.95959     -436.11109      0             -420.34984     -0.30847651   
    433000   931.54584     -438.81504      0             -421.9574      -14.13569     
    434000   885.88239     -438.7957       0             -422.7644       0.082422078  
    435000   991.01547     -436.42952      0             -418.49569      12.943703    
    436000   877.80492     -435.31416      0             -419.42903      12.11673     
    437000   839.90183     -437.84156      0             -422.64234     -2.5264405    
    438000   939.77972     -435.5267       0             -418.52005      5.6670047    
    439000   904.62349     -436.96759      0             -420.59714      4.4691924    
    440000   1019.6237     -437.50874      0             -419.0572       7.4660224    
    441000   1010.0112     -436.97323      0             -418.69564      13.89111     
    442000   938.33182     -433.51892      0             -416.53847      3.1121658    
    443000   874.2926      -437.12655      0             -421.30498      0.99645443   
    444000   845.04126     -438.04346      0             -422.75123      1.7841009    
    445000   932.95464     -436.177        0             -419.29386      1.9981648    
    446000   886.58896     -437.65378      0             -421.60969      8.8217092    
    447000   840.70212     -434.06344      0             -418.84974      8.3801727    
    448000   932.34646     -436.76912      0             -419.89699      7.1380082    
    449000   871.12986     -434.48946      0             -418.72513     -1.5262093    
    450000   816.36108     -433.45428      0             -418.68107     -2.1564645    
    451000   977.00391     -436.30827      0             -418.62799      1.3186076    
    452000   896.84955     -437.28979      0             -421.06003      4.4239011    
    453000   956.29963     -437.03895      0             -419.73335      5.5271771    
    454000   856.60638     -437.80601      0             -422.3045       9.3333834    
    455000   926.23818     -437.08473      0             -420.32313     -1.8804892    
    456000   995.2916      -434.66141      0             -416.65019     -4.5917534    
    457000   882.23751     -436.35614      0             -420.3908      -8.7846495    
    458000   871.21508     -439.05332      0             -423.28745     -6.6158646    
    459000   944.57564     -437.68734      0             -420.5939       1.3917508    
    460000   818.90307     -435.59614      0             -420.77692      9.5317342    
    461000   930.05343     -437.6291       0             -420.79846      2.9190004    
    462000   970.57497     -436.26943      0             -418.7055      -13.513755    
    463000   858.83512     -437.13877      0             -421.59693     -2.2791907    
    464000   955.50891     -435.15805      0             -417.86676      3.9885821    
    465000   831.3511      -435.69531      0             -420.65083     -4.0849044    
    466000   850.51055     -435.75182      0             -420.36062     -2.210618     
    467000   929.40176     -437.46249      0             -420.64364     -0.5461686    
    468000   834.51219     -435.50073      0             -420.39904      9.0735323    
    469000   864.99761     -434.27169      0             -418.61833      10.4905      
    470000   893.37051     -437.5468       0             -421.37999      5.5414014    
    471000   1001.7706     -436.74027      0             -418.61181      0.47085114   
    472000   1044.6509     -439.39753      0             -420.49309      5.3770538    
    473000   929.78914     -437.13318      0             -420.30732      6.2208367    
    474000   965.77372     -435.33051      0             -417.85347      1.0799268    
    475000   944.25995     -438.30159      0             -421.21387      1.0680107    
    476000   897.23716     -437.71354      0             -421.47676     -2.0578387    
    477000   866.58083     -436.47039      0             -420.78838     -8.6291415    
    478000   791.05524     -438.69259      0             -424.37732     -8.2879419    
    479000   857.88152     -434.54972      0             -419.02513     -3.5089059    
    480000   857.42472     -437.3853       0             -421.86899      0.40625994   
    481000   879.44627     -435.49411      0             -419.57928      1.7429289    
    482000   849.16273     -435.97266      0             -420.60585      2.3735213    
    483000   857.4488      -432.68653      0             -417.16977     -7.9256586    
    484000   952.16365     -432.19091      0             -414.96016     -7.1265041    
    485000   919.54082     -438.39764      0             -421.75724      7.6075744    
    486000   1008.9786     -437.56765      0             -419.30875      10.290462    
    487000   751.5323      -436.22413      0             -422.62409      0.018832205  
    488000   808.61961     -433.73777      0             -419.10465      4.1298273    
    489000   1008.7571     -434.9169       0             -416.66201     -0.96611224   
    490000   807.09237     -437.0911       0             -422.48562      4.5991767    
    491000   1047.1098     -436.02507      0             -417.07613     -2.697234     
    492000   924.41683     -437.40292      0             -420.67428      2.8101282    
    493000   1011.9163     -436.17739      0             -417.86533      2.9854396    
    494000   807.34597     -436.91833      0             -422.30826      1.2188614    
    495000   865.14133     -436.49338      0             -420.83742     -6.1911547    
    496000   912.01797     -435.10648      0             -418.60222     -13.179564    
    497000   911.88096     -436.89188      0             -420.3901      -9.3277158    
    498000   843.19537     -437.22487      0             -421.96606     -13.314478    
    499000   884.98859     -436.18588      0             -420.17075     -10.201261    
    500000   955.83369     -436.31399      0             -419.01683     -12.79377     
    501000   898.86044     -436.09279      0             -419.82663     -2.0560909    
    502000   941.7522      -437.11892      0             -420.07658     -0.32536021   
    503000   912.68189     -436.41196      0             -419.89569     -3.6420419    
    504000   843.36491     -438.30581      0             -423.04392     -6.6415671    
    505000   854.7431      -437.37139      0             -421.9036      -0.073294347  
    506000   887.71818     -433.67791      0             -417.61339      0.98832967   
    507000   860.0389      -435.75013      0             -420.18651     -8.6762797    
    508000   952.18917     -434.08833      0             -416.85711     -10.862813    
    509000   960.90372     -437.89504      0             -420.50612     -7.2828833    
    510000   809.06573     -435.41546      0             -420.77427      0.7357627    
    511000   967.26324     -436.03985      0             -418.53585     -6.3483297    
    512000   1026.2544     -433.27525      0             -414.70372      1.4865545    
    513000   859.21619     -436.39335      0             -420.84461      1.7532143    
    514000   981.32973     -437.88251      0             -420.12395      3.9716813    
    515000   1007.2678     -435.39941      0             -417.17147      8.0696187    
    516000   936.64568     -433.93251      0             -416.98258      2.43407      
    517000   863.59648     -438.55505      0             -422.92704      4.4601553    
    518000   961.96921     -436.87993      0             -419.47174      5.6959415    
    519000   989.27992     -436.09822      0             -418.19579      4.6691681    
    520000   926.05001     -438.10806      0             -421.34987     -6.2089427    
    521000   900.25731     -435.87964      0             -419.58821     -1.7901962    
    522000   943.11135     -437.14162      0             -420.07468     -2.4893056    
    523000   966.1217      -434.63956      0             -417.15622      2.8773796    
    524000   892.98775     -436.15762      0             -419.99774      9.9016058    
    525000   898.54262     -438.24302      0             -421.98261      5.584398     
    526000   1016.5351     -435.24846      0             -416.85282      14.641784    
    527000   967.23246     -435.96205      0             -418.4586       9.5776285    
    528000   1017.8992     -438.03027      0             -419.60994     -2.3773748    
    529000   905.20062     -436.83782      0             -420.45693     -0.77859998   
    530000   833.14744     -436.7049       0             -421.62791      6.6368214    
    531000   930.77679     -436.87553      0             -420.0318      -2.2698929    
    532000   859.06867     -435.60199      0             -420.05593     -0.75164259   
    533000   909.64711     -436.17468      0             -419.71333     -9.6109772    
    534000   999.6344      -436.46896      0             -418.37915      7.6299435    
    535000   843.3561      -438.96618      0             -423.70445      6.412152     
    536000   933.21712     -437.28023      0             -420.39234      7.2590777    
    537000   942.65023     -437.17336      0             -420.11476      6.8344326    
    538000   1032.9835     -437.61801      0             -418.9247       4.1669917    
    539000   939.79878     -437.36583      0             -420.35884     -1.9254779    
    540000   951.6412      -435.68884      0             -418.46754      3.8208214    
    541000   926.18534     -435.51856      0             -418.75792      3.9591692    
    542000   899.67959     -438.55367      0             -422.27269      7.8223026    
    543000   841.8554      -436.16758      0             -420.93301     -2.2257994    
    544000   973.06203     -435.68314      0             -418.0742       1.5263242    
    545000   963.86465     -438.54821      0             -421.10571      3.6817269    
    546000   926.29586     -439.29825      0             -422.53561      9.9081117    
    547000   925.54532     -440.44621      0             -423.69716      5.6839151    
    548000   823.67684     -435.81789      0             -420.91228     -0.00011358057
    549000   854.0919      -434.44009      0             -418.98409      4.847226     
    550000   933.39831     -437.34082      0             -420.44966     -4.1816976    
Loop time of 111.969 on 1 procs for 500000 steps with 141 atoms

Performance: 385.821 ns/day, 0.062 hours/ns, 4465.516 timesteps/s, 629.638 katom-step/s
100.0% CPU use with 1 MPI tasks x 1 OpenMP threads

MPI task timing breakdown:
Section |  min time  |  avg time  |  max time  |%varavg| %total
---------------------------------------------------------------
Pair    | 109.42     | 109.42     | 109.42     |   0.0 | 97.72
Neigh   | 0.50628    | 0.50628    | 0.50628    |   0.0 |  0.45
Comm    | 0.10819    | 0.10819    | 0.10819    |   0.0 |  0.10
Output  | 0.027272   | 0.027272   | 0.027272   |   0.0 |  0.02
Modify  | 1.5772     | 1.5772     | 1.5772     |   0.0 |  1.41
Other   |            | 0.3312     |            |       |  0.30

Nlocal:            141 ave         141 max         141 min
Histogram: 1 0 0 0 0 0 0 0 0 0
Nghost:              0 ave           0 max           0 min
Histogram: 1 0 0 0 0 0 0 0 0 0
Neighs:           6022 ave        6022 max        6022 min
Histogram: 1 0 0 0 0 0 0 0 0 0

Total # of neighbors = 6022
Ave neighs/atom = 42.70922
Neighbor list builds = 4106
Dangerous builds = 0

unfix 1
undump 1
next j
jump SELF loop_j
variable temperature equal 900+10*$j
variable temperature equal 900+10*1
variable T equal temp
variable Eatom equal etotal/atoms
fix 1 all nvt temp ${temperature} ${temperature} 0.1
fix 1 all nvt temp 910 ${temperature} 0.1
fix 1 all nvt temp 910 910 0.1
run 50000
Per MPI rank memory allocation (min/avg/max) = 3.551 | 3.551 | 3.551 Mbytes
   Step          Temp          E_pair         E_mol          TotEng         Press     
    550000   933.39831     -437.34082      0             -420.44966     -4.1816976    
    551000   943.35234     -438.04095      0             -420.96965      5.0903583    
    552000   987.02943     -435.30513      0             -417.44343     -0.27194396   
    553000   899.27745     -436.57523      0             -420.30152     -4.573983     
    554000   842.16668     -437.53641      0             -422.29621     -8.7122939    
    555000   939.37431     -435.61844      0             -418.61913      4.5730564    
    556000   827.2735      -437.92578      0             -422.95509      6.4908074    
    557000   1045.7715     -434.54343      0             -415.61871     -2.4463558    
    558000   929.89584     -437.07753      0             -420.24975      1.407129     
    559000   982.09537     -437.20261      0             -419.4302       4.8742908    
    560000   907.12148     -434.97615      0             -418.5605       18.108092    
    561000   903.81447     -436.65688      0             -420.30107      4.6446573    
    562000   835.08413     -434.22474      0             -419.11271     -1.675042     
    563000   853.41111     -434.49026      0             -419.04657     -11.693157    
    564000   808.92443     -436.35261      0             -421.71397     -8.7463497    
    565000   879.80373     -438.2818       0             -422.36051     -9.2767728    
    566000   795.20682     -433.11928      0             -418.72888     -3.3088075    
    567000   815.45663     -436.37061      0             -421.61376     -0.8609918    
    568000   832.41441     -438.1047       0             -423.04098     -1.6525692    
    569000   870.11351     -436.12097      0             -420.37503      0.32170143   
    570000   782.86372     -435.5013       0             -421.33427      0.88129996   
    571000   813.92988     -439.76992      0             -425.0407      -7.1758936    
    572000   801.22772     -437.60936      0             -423.11001      2.6090277    
    573000   892.1594      -437.39294      0             -421.24805     -0.61041556   
    574000   885.91154     -437.05207      0             -421.02024     -0.29781727   
    575000   978.74307     -436.28597      0             -418.57422      3.0707538    
    576000   878.91887     -437.06508      0             -421.1598       0.48652103   
    577000   888.42338     -436.17714      0             -420.09985      0.10378692   
    578000   954.20502     -436.21219      0             -418.9445       1.27897      
    579000   812.94753     -435.00558      0             -420.29414      0.27558012   
    580000   823.73462     -437.98597      0             -423.07933     -4.9656732    
    581000   892.28825     -436.42223      0             -420.27501     -8.2753124    
    582000   860.89201     -435.25302      0             -419.67396     -12.881163    
    583000   888.57242     -436.51589      0             -420.43591     -12.4029      
    584000   906.83996     -437.17384      0             -420.76329      0.44374865   
    585000   844.5172      -435.64641      0             -420.36367      7.6169913    
    586000   932.50752     -433.91049      0             -417.03544      1.7247397    
    587000   894.532       -437.12855      0             -420.94072      0.66729718   
    588000   838.65007     -438.47818      0             -423.30162      1.7171318    
    589000   890.26163     -435.69577      0             -419.58522      6.0247274    
    590000   961.8886      -437.10479      0             -419.69805      5.5105182    
    591000   909.9121      -436.57932      0             -420.11317     -2.0116613    
    592000   912.75018     -436.37627      0             -419.85876     -0.15572794   
    593000   840.12919     -437.45032      0             -422.24699      7.7480916    
    594000   1005.2143     -437.93863      0             -419.74785      4.4554427    
    595000   1008.0006     -437.29329      0             -419.05209      6.9146258    
    596000   1051.9713     -437.77279      0             -418.73588     -2.4415434    
    597000   921.44423     -437.16369      0             -420.48884     -4.6902655    
    598000   876.26217     -438.80874      0             -422.95153      1.5024724    
    599000   886.1807      -437.55009      0             -421.51339     -9.6411637    
    600000   890.5073      -435.01699      0             -418.902       -15.76467     
Loop time of 11.2297 on 1 procs for 50000 steps with 141 atoms

Performance: 384.694 ns/day, 0.062 hours/ns, 4452.478 timesteps/s, 627.799 katom-step/s
100.0% CPU use with 1 MPI tasks x 1 OpenMP threads

MPI task timing breakdown:
Section |  min time  |  avg time  |  max time  |%varavg| %total
---------------------------------------------------------------
Pair    | 10.977     | 10.977     | 10.977     |   0.0 | 97.75
Neigh   | 0.048972   | 0.048972   | 0.048972   |   0.0 |  0.44
Comm    | 0.011125   | 0.011125   | 0.011125   |   0.0 |  0.10
Output  | 0.00052865 | 0.00052865 | 0.00052865 |   0.0 |  0.00
Modify  | 0.15911    | 0.15911    | 0.15911    |   0.0 |  1.42
Other   |            | 0.03249    |            |       |  0.29

Nlocal:            141 ave         141 max         141 min
Histogram: 1 0 0 0 0 0 0 0 0 0
Nghost:              0 ave           0 max           0 min
Histogram: 1 0 0 0 0 0 0 0 0 0
Neighs:           6088 ave        6088 max        6088 min
Histogram: 1 0 0 0 0 0 0 0 0 0

Total # of neighbors = 6088
Ave neighs/atom = 43.177305
Neighbor list builds = 395
Dangerous builds = 0
unfix 1

# Statistical step
fix 2 all ave/time 100 5 1000 v_T v_Eatom file data_ave${temperature}.txt
fix 2 all ave/time 100 5 1000 v_T v_Eatom file data_ave910.txt
dump 1 all atom 5000 fusion_${temperature}.atom
dump 1 all atom 5000 fusion_910.atom
fix 1 all nvt temp ${temperature} ${temperature} 0.1
fix 1 all nvt temp 910 ${temperature} 0.1
fix 1 all nvt temp 910 910 0.1
run 500000
Per MPI rank memory allocation (min/avg/max) = 3.551 | 3.551 | 3.551 Mbytes
   Step          Temp          E_pair         E_mol          TotEng         Press     
    600000   890.5073      -435.01699      0             -418.902       -15.76467     
    601000   928.84812     -436.39748      0             -419.58866     -3.8402706    
    602000   905.85562     -436.40031      0             -420.00756     -3.2115234    
    603000   883.05425     -437.34816      0             -421.36804     -2.7262873    
    604000   891.90127     -436.93373      0             -420.79351     -3.767874     
    605000   879.19629     -437.84631      0             -421.936       -1.3766032    
    606000   903.01923     -436.58197      0             -420.24056     -5.7135889    
    607000   1021.8832     -436.2697       0             -417.77727     -3.0395743    
    608000   900.69572     -434.42319      0             -418.12382      1.0203342    
    609000   908.06745     -436.15349      0             -419.72072     -0.12923851   
    610000   867.55976     -437.61519      0             -421.91546      4.8459764    
    611000   975.96884     -435.19708      0             -417.53554      0.17949531   
    612000   916.15742     -433.89421      0             -417.31504     -0.050297275  
    613000   991.25201     -435.69922      0             -417.76111      0.9990905    
    614000   864.2619      -437.63633      0             -421.99628     -4.3957625    
    615000   831.63331     -436.129        0             -421.07942      0.96820294   
    616000   970.05608     -434.74175      0             -417.18721      2.7569636    
    617000   824.12369     -434.94844      0             -420.03475     -2.5164586    
    618000   781.84981     -437.48234      0             -423.33366      6.165256     
    619000   833.09498     -437.19974      0             -422.1237       0.45203419   
    620000   973.42788     -436.28151      0             -418.66595      5.5525792    
    621000   868.28235     -436.44901      0             -420.73621     -7.6461278    
    622000   1109.8227     -435.54007      0             -415.45626     -7.7612549    
    623000   930.84358     -432.31114      0             -415.4662      -2.2394801    
    624000   918.60814     -435.90326      0             -419.27974     -4.0848076    
    625000   832.57234     -434.79861      0             -419.73203      3.1409207    
    626000   898.81426     -436.24356      0             -419.97824      3.5826862    
    627000   989.95914     -436.53454      0             -418.61983      12.313698    
    628000   912.52452     -437.53838      0             -421.02495      3.4238074    
    629000   898.01972     -436.3296       0             -420.07866      0.078861109  
    630000   918.64418     -435.48041      0             -418.85623      1.4753992    
    631000   888.01764     -434.93954      0             -418.8696      -0.42686989   
    632000   929.23802     -436.15896      0             -419.34307      3.6462559    
    633000   930.12677     -434.97001      0             -418.13804      4.969762     
    634000   882.87904     -439.29977      0             -423.32282     -5.5112098    
    635000   910.01455     -433.16144      0             -416.69343     -2.6450149    
    636000   842.02626     -436.46272      0             -421.22506      1.0784301    
    637000   996.79425     -437.47737      0             -419.43896      7.5187394    
    638000   932.42453     -438.05749      0             -421.18394      12.384631    
    639000   894.30693     -435.38875      0             -419.205        3.2251654    
    640000   961.25655     -435.39142      0             -417.99612     -2.1174718    
    641000   907.29594     -437.93661      0             -421.51781      0.9391078    
    642000   1072.359      -435.39415      0             -415.98829     -0.040688791  
    643000   836.19303     -436.83344      0             -421.70134      6.3171696    
    644000   969.90154     -435.27931      0             -417.72756      1.39814      
    645000   837.25202     -435.32675      0             -420.17549      1.4296377    
    646000   829.35616     -436.04918      0             -421.04081      2.9929036    
    647000   814.05692     -436.55196      0             -421.82044     -1.7427261    
    648000   965.32127     -436.67903      0             -419.21017     -5.9054811    
    649000   908.97588     -435.41824      0             -418.96903      0.90317129   
    650000   884.47276     -434.76213      0             -418.75634     -9.0293452    
    651000   795.39804     -433.93455      0             -419.54069     -6.2295117    
    652000   948.79896     -435.56778      0             -418.39792      0.97874683   
    653000   911.37296     -436.23961      0             -419.74702     -0.23104309   
    654000   840.73635     -437.15575      0             -421.94143     -4.2581216    
    655000   961.34618     -435.52711      0             -418.13019     -3.1398502    
    656000   896.04664     -438.47587      0             -422.26064     -2.3184304    
    657000   904.48652     -437.34125      0             -420.97328      1.1714043    
    658000   889.45387     -435.33617      0             -419.24024     -2.8859118    
    659000   875.62806     -439.4381       0             -423.59237      4.5289502    
    660000   980.18763     -434.87012      0             -417.13223      4.3277911    
    661000   933.82216     -435.74795      0             -418.84912      7.8071472    
    662000   986.74528     -434.93203      0             -417.07547     -0.93227695   
    663000   908.90621     -435.6225       0             -419.17455     -1.36381      
    664000   946.9291      -435.39259      0             -418.25657     -4.5739063    
    665000   870.49039     -435.83251      0             -420.07975     -1.0198262    
    666000   980.3509      -439.84307      0             -422.10223     -3.0423265    
    667000   883.45223     -436.21279      0             -420.22546     -0.85701531   
    668000   908.18997     -437.75723      0             -421.32224     -2.4351827    
    669000   982.47679     -433.70293      0             -415.92362     -5.3238725    
    670000   859.98704     -435.24602      0             -419.68333      3.6439014    
    671000   890.16189     -436.60664      0             -420.4979      -4.8719426    
    672000   950.79146     -436.19399      0             -418.98807      0.07661524   
    673000   863.54173     -434.57046      0             -418.94344      5.7901294    
    674000   860.81274     -436.28187      0             -420.70424     -0.31113295   
    675000   869.60615     -434.56742      0             -418.83066      0.14936158   
    676000   926.05653     -436.62905      0             -419.87074      0.46146544   
    677000   1052.4236     -434.59134      0             -415.54624      1.3901496    
    678000   809.24303     -433.17394      0             -418.52954      5.4439822    
    679000   953.39686     -437.30765      0             -420.05458     -0.8444393    
    680000   894.12266     -438.89803      0             -422.71761     -3.0025574    
    681000   867.37999     -435.27911      0             -419.58264     -0.33041433   
    682000   894.3303      -436.30378      0             -420.1196       1.3331637    
    683000   888.61266     -436.43524      0             -420.35453      1.9266758    
    684000   913.37708     -436.11803      0             -419.58918     -9.0354205    
    685000   915.8191      -436.35248      0             -419.77943     -7.2981519    
    686000   828.52815     -437.94097      0             -422.94758      4.2192126    
    687000   871.33711     -434.7158       0             -418.94771     -2.5233285    
    688000   937.43126     -434.40214      0             -417.43799      1.1450225    
    689000   905.47442     -437.19056      0             -420.80472     -0.79686334   
    690000   908.21979     -433.5743       0             -417.13878     -0.42271481   
    691000   1021.6451     -436.97251      0             -418.48439     -8.9026759    
    692000   965.25015     -438.82192      0             -421.35435     -6.0466288    
    693000   795.31287     -438.89519      0             -424.50288      2.8185252    
    694000   861.19242     -434.67844      0             -419.09394     -0.058568041  
    695000   1029.0255     -436.01972      0             -417.39804     -2.8607643    
    696000   873.78122     -437.67869      0             -421.86638      7.7859574    
    697000   1022.6031     -438.8793       0             -420.37385      0.71722189   
    698000   967.58513     -436.13163      0             -418.62181      2.7723666    
    699000   897.69875     -434.74865      0             -418.50351     -5.773159     
    700000   932.85144     -436.3297       0             -419.44843     -2.9847549    
    701000   906.44619     -438.301        0             -421.89757     -5.3203521    
    702000   820.65248     -435.61699      0             -420.76611      6.6261137    
    703000   1018.1833     -434.93257      0             -416.5071      -7.6961993    
    704000   910.94075     -438.35082      0             -421.86605     -0.79668443   
    705000   930.65052     -436.31887      0             -419.47743      7.0304126    
    706000   816.76091     -435.83659      0             -421.05614      5.1362194    
    707000   965.58269     -437.91001      0             -420.43642      0.0038404754 
    708000   864.469       -437.49267      0             -421.84888      0.68468773   
    709000   882.77256     -438.61049      0             -422.63546     -1.6358428    
    710000   903.01938     -434.12866      0             -417.78724     -8.2746766    
    711000   894.80823     -435.38603      0             -419.19321     -0.94682534   
    712000   975.07033     -436.89075      0             -419.24547      1.6416694    
    713000   1046.273      -438.01933      0             -419.08553      12.1094      
    714000   971.43454     -436.68102      0             -419.10153      9.6906561    
    715000   975.42671     -435.85928      0             -418.20755      8.444889     
    716000   870.26832     -435.24861      0             -419.49987     -1.9678893    
    717000   940.78434     -437.19494      0             -420.17012      1.1674716    
    718000   889.83876     -434.48822      0             -418.38532      9.652495     
    719000   883.08264     -435.61893      0             -419.6383       0.20917718   
    720000   1001.8809     -437.52428      0             -419.39382      7.4585563    
    721000   921.34384     -436.89749      0             -420.22447      6.2315543    
    722000   915.52142     -436.45602      0             -419.88836     -2.3662391    
    723000   923.23575     -438.45979      0             -421.75252      2.0077979    
    724000   880.32086     -437.67552      0             -421.74487     -1.4742116    
    725000   917.08844     -435.72252      0             -419.1265      -11.128716    
    726000   813.5709      -436.56468      0             -421.84196     -3.8794305    
    727000   917.39433     -435.51488      0             -418.91332      1.7286039    
    728000   897.91839     -437.10122      0             -420.85211      12.36478     
    729000   979.45769     -436.42564      0             -418.70096      5.0867868    
    730000   926.96422     -435.38575      0             -418.61102      8.0914627    
    731000   916.06564     -437.92307      0             -421.34556      5.1331955    
    732000   882.62156     -437.95729      0             -421.985        1.0616541    
    733000   872.92338     -434.16473      0             -418.36794      3.2728273    
    734000   899.31567     -437.60069      0             -421.32629     -1.0065571    
    735000   866.37628     -435.88551      0             -420.2072       4.5154518    
    736000   956.42494     -435.23682      0             -417.92895     -5.8001955    
    737000   904.58845     -438.43255      0             -422.06273      7.9271685    
    738000   852.32612     -436.41019      0             -420.98614     -2.4268574    
    739000   1021.696      -436.64625      0             -418.15721     -9.937382     
    740000   790.63883     -437.29649      0             -422.98876     -2.6842671    
    741000   911.16383     -437.90401      0             -421.41521      0.032979904  
    742000   1028.0283     -434.16244      0             -415.55881      1.9692771    
    743000   1044.5775     -436.9904       0             -418.08728     -1.3763032    
    744000   982.87266     -434.68293      0             -416.89645     -3.3660596    
    745000   843.60779     -435.99153      0             -420.72525     -3.1448114    
    746000   918.91933     -435.91625      0             -419.2871      -0.30935322   
    747000   849.49304     -434.69421      0             -419.32142     -5.6986121    
    748000   927.44233     -436.85024      0             -420.06686     -1.1440263    
    749000   901.00164     -434.25033      0             -417.94543      11.381753    
    750000   888.70575     -438.16028      0             -422.07788      12.778985    
    751000   880.95791     -436.58342      0             -420.64123      2.2536032    
    752000   941.01654     -437.74739      0             -420.71836      0.068840275  
    753000   944.19014     -437.48313      0             -420.39667     -6.7058924    
    754000   858.16408     -434.75419      0             -419.22449     -9.3580119    
    755000   841.48574     -436.59334      0             -421.36547     -3.9024431    
    756000   918.95466     -436.37401      0             -419.74422     -5.1263858    
    757000   1000.7784     -439.10089      0             -420.99039      6.5521147    
    758000   860.21038     -437.45202      0             -421.88529     -1.4754711    
    759000   926.01163     -435.86553      0             -419.10804     -10.614519    
    760000   730.84303     -434.93157      0             -421.70592     -0.48394097   
    761000   923.06506     -436.71472      0             -420.01055     -2.6335457    
    762000   855.44715     -435.69552      0             -420.21499     -3.9504713    
    763000   979.84685     -436.15738      0             -418.42566     -0.49630309   
    764000   880.71553     -436.28274      0             -420.34494      3.516856     
    765000   840.96779     -436.86802      0             -421.64951      5.4051567    
    766000   940.15315     -436.02579      0             -419.01238      9.6475104    
    767000   1097.8945     -435.35828      0             -415.49031      0.84046304   
    768000   878.11211     -436.55205      0             -420.66136      7.8804595    
    769000   940.02968     -437.03809      0             -420.02691      6.9559512    
    770000   881.3994      -436.98442      0             -421.03424     -0.90949774   
    771000   819.46157     -434.94087      0             -420.11155     -1.8366419    
    772000   817.46387     -437.49919      0             -422.70602     -6.9192079    
    773000   880.65854     -434.79318      0             -418.85641     -4.9273675    
    774000   971.07205     -439.01241      0             -421.43948      4.4813026    
    775000   1017.5506     -437.9212       0             -419.50718      1.3213658    
    776000   912.90111     -436.17397      0             -419.65372      12.062732    
    777000   929.56183     -437.654        0             -420.83226      7.8086131    
    778000   855.88006     -435.8955       0             -420.40713      0.35417368   
    779000   929.8032      -434.65814      0             -417.83203     -0.63632216   
    780000   920.52363     -438.55511      0             -421.89693     -2.5326669    
    781000   815.74724     -437.67597      0             -422.91387      0.20182228   
    782000   889.93506     -436.40155      0             -420.29691      2.121821     
    783000   865.67158     -437.65079      0             -421.98524      6.6374687    
    784000   925.99397     -437.13697      0             -420.37979      8.1830314    
    785000   931.9369      -435.95847      0             -419.09375      7.1314687    
    786000   883.28687     -436.49826      0             -420.51393      8.0814276    
    787000   984.09398     -433.49215      0             -415.68358      3.2342491    
    788000   845.19813     -435.01368      0             -419.71862     -0.36844601   
    789000   929.5443      -435.96644      0             -419.14501     -1.0294017    
    790000   795.07169     -434.71787      0             -420.32991      1.9055623    
    791000   911.09662     -434.59932      0             -418.11173      2.6978711    
    792000   983.72299     -437.31373      0             -419.51187     -6.6423304    
    793000   778.08487     -439.03178      0             -424.95123      3.0056817    
    794000   844.10711     -435.45686      0             -420.18154      1.2651739    
    795000   851.40483     -431.03851      0             -415.63113      5.8377731    
    796000   972.49696     -436.32475      0             -418.72603      5.6536028    
    797000   905.21262     -436.19128      0             -419.81017      0.64713652   
    798000   855.89904     -435.65585      0             -420.16714      2.058324     
    799000   914.5094      -435.2562       0             -418.70686     -2.0692239    
    800000   1078.4618     -435.41362      0             -415.89733     -0.4985058    
    801000   949.17736     -434.28483      0             -417.10812     -4.3983763    
    802000   903.77568     -437.28317      0             -420.92807      1.6841076    
    803000   963.08537     -436.65547      0             -419.22707     -4.3968434    
    804000   927.29417     -434.26752      0             -417.48681     -0.31153598   
    805000   841.09687     -436.5346       0             -421.31375      0.15012912   
    806000   893.75189     -435.99126      0             -419.81755     -4.6356489    
    807000   864.09913     -438.64119      0             -423.00409     -5.3934484    
    808000   876.17797     -435.46318      0             -419.60749     -9.0541647    
    809000   875.9163      -438.87832      0             -423.02737     -2.0700931    
    810000   866.83482     -437.65814      0             -421.97154      5.8551789    
    811000   971.2044      -437.53024      0             -419.95492     -4.985464     
    812000   820.27099     -434.79845      0             -419.95449     -2.5822026    
    813000   901.81266     -437.55518      0             -421.2356      -4.4218915    
    814000   984.16514     -432.11924      0             -414.30937      2.6302426    
    815000   928.09432     -435.13079      0             -418.3356      -0.66915876   
    816000   825.48492     -438.62804      0             -423.68971     -3.5599785    
    817000   805.7088      -436.47961      0             -421.89916     -7.5518995    
    818000   921.96634     -436.42149      0             -419.7372      -11.431198    
    819000   960.92203     -435.2802       0             -417.89095     -6.0157804    
[...]
  11335000   1075.5619     -422.57588      0             -403.11206      6.4738588    
  11336000   1156.9455     -421.48366      0             -400.54709     -4.7936482    
  11337000   1090.3629     -423.87222      0             -404.14056     -1.9074706    
  11338000   1023.829      -418.78716      0             -400.25952      6.7465153    
  11339000   1067.6138     -420.95445      0             -401.63447      0.13542709   
  11340000   970.30415     -423.14948      0             -405.59045     -1.0069114    
  11341000   1166.1462     -421.46018      0             -400.35711      2.1303674    
  11342000   1192.4213     -423.84954      0             -402.27098      10.74083     
  11343000   1119.666      -423.29627      0             -403.03433      9.7247746    
  11344000   1063.9579     -423.27365      0             -404.01982     -10.821791    
  11345000   1083.0352     -422.15061      0             -402.55155      7.1232364    
  11346000   980.84665     -421.96952      0             -404.21971      6.3398966    
  11347000   1130.1867     -422.94043      0             -402.48809      4.3574455    
  11348000   1084.314      -422.56209      0             -402.93989      7.409637     
  11349000   1134.4235     -423.17759      0             -402.64858      3.2165051    
  11350000   1130.3274     -421.87747      0             -401.4226       1.3615048    
  11351000   1064.2685     -420.9692       0             -401.70976     -1.0366828    
  11352000   1050.946      -423.76589      0             -404.74752     -3.9169885    
  11353000   1218.303      -423.14431      0             -401.09739     -5.0520272    
  11354000   1083.059      -424.57626      0             -404.97677      1.9474968    
  11355000   1068.7453     -421.20526      0             -401.8648       5.4106761    
  11356000   1055.4404     -422.69095      0             -403.59125      12.912951    
  11357000   1059.6143     -422.28996      0             -403.11473      2.462191     
  11358000   1087.7204     -423.19899      0             -403.51515      1.720951     
  11359000   1132.8416     -421.60347      0             -401.10309      12.853369    
  11360000   1106.8649     -420.57548      0             -400.54519     -3.8899399    
  11361000   1113.4629     -421.64524      0             -401.49555      2.9044173    
  11362000   1060.3071     -418.23903      0             -399.05127      3.9326639    
  11363000   1390.5894     -421.847        0             -396.68231      0.65546673   
  11364000   1155.2227     -422.76663      0             -401.86123      8.5358367    
  11365000   1159.5976     -420.46633      0             -399.48177      4.8626128    
  11366000   1115.5016     -421.08715      0             -400.90056     -0.030603313  
  11367000   1037.4057     -421.91348      0             -403.14015      12.185981    
  11368000   1029.7491     -426.80136      0             -408.16659      6.4350111    
  11369000   1180.2632     -423.00463      0             -401.64609      1.3171074    
  11370000   1136.4188     -424.93666      0             -404.37154     -2.4490774    
  11371000   1084.57       -421.19403      0             -401.56719     -2.3109613    
  11372000   984.8962      -423.64819      0             -405.82509      10.244463    
  11373000   1057.3594     -421.29628      0             -402.16186      4.0962266    
  11374000   1217.7235     -421.20274      0             -399.16631     -2.3651339    
  11375000   1151.1768     -420.06843      0             -399.23625      7.3617741    
  11376000   1151.9841     -421.18265      0             -400.33586     -6.5866706    
  11377000   1225.4333     -423.15632      0             -400.98036     -1.060309     
  11378000   1110.6611     -424.50806      0             -404.40907      2.2817445    
  11379000   1105.3846     -423.33825      0             -403.33475      0.19044934   
  11380000   1268.8734     -420.99749      0             -398.03543      1.1743513    
  11381000   1060.1081     -423.92698      0             -404.74282      2.4213347    
  11382000   1128.9265     -423.83127      0             -403.40174     -1.3816881    
  11383000   1193.3357     -423.6018       0             -402.0067      -5.1098817    
  11384000   1003.744      -423.37503      0             -405.21086      9.3951077    
  11385000   1169.0325     -421.7712       0             -400.61589     -3.2471004    
  11386000   1074.8034     -420.02276      0             -400.57266     -4.185704     
  11387000   1127.4028     -424.10349      0             -403.70154      2.7586215    
  11388000   1137.9126     -422.41118      0             -401.81903      3.8625604    
  11389000   1027.9159     -425.54108      0             -406.93948      5.2632702    
  11390000   1164.4781     -423.07588      0             -402.00299      9.5393963    
  11391000   1090.1573     -421.21516      0             -401.48722      7.3370058    
  11392000   1060.061      -420.52998      0             -401.34667      3.1906164    
  11393000   1088.2891     -421.65201      0             -401.95788      2.6492429    
  11394000   1174.8231     -419.30374      0             -398.04365      1.8207222    
  11395000   1105.4696     -423.58457      0             -403.57953     -4.6144341    
  11396000   1029.8268     -422.64217      0             -404.00599     -3.1740209    
  11397000   1006.4736     -421.72771      0             -403.51414      5.6391256    
  11398000   927.00531     -420.14228      0             -403.36681      4.3875842    
  11399000   1159.4953     -423.68788      0             -402.70516      0.59491949   
  11400000   1141.2925     -421.4252       0             -400.77189      0.12440662   
  11401000   1059.0724     -420.12602      0             -400.9606      -5.8039834    
  11402000   1177.1824     -422.09118      0             -400.7884      -1.3307511    
  11403000   1093.9704     -424.05601      0             -404.25907      0.6100911    
  11404000   1003.5569     -424.16282      0             -406.00203     -3.3134695    
  11405000   924.5767      -423.72582      0             -406.99429     -2.296799     
  11406000   1149.467      -422.18868      0             -401.38745     -0.85324533   
  11407000   1215.8704     -423.7589       0             -401.756        10.110224    
  11408000   1215.396      -424.82076      0             -402.82645      3.1933815    
  11409000   1176.9723     -421.82403      0             -400.52504      6.028353     
  11410000   1009.181      -422.61903      0             -404.35647      12.221541    
  11411000   1085.2874     -423.07722      0             -403.43741      6.9673384    
  11412000   1170.9323     -421.21818      0             -400.0285       0.0075627958 
  11413000   1187.2669     -419.26492      0             -397.77964      14.40025     
  11414000   976.69099     -418.75025      0             -401.07564      0.35061683   
  11415000   1074.4938     -423.43604      0             -403.99154      5.4384102    
  11416000   1180.0906     -421.56999      0             -400.21458      6.7024972    
  11417000   1069.6246     -419.09647      0             -399.74009     -2.3348218    
  11418000   1029.1239     -421.73719      0             -403.11373     -0.44653617   
  11419000   1063.7245     -422.98643      0             -403.73682     -8.3487535    
  11420000   1098.7004     -423.88476      0             -404.00222     -3.5218552    
  11421000   1183.513      -424.57299      0             -403.15565      2.5427158    
  11422000   1140.8652     -422.87544      0             -402.22987      2.5486283    
  11423000   1114.2095     -423.58277      0             -403.41957     -0.51154605   
  11424000   1108.1548     -423.85932      0             -403.80568      11.081482    
  11425000   1156.7906     -422.97308      0             -402.03931      6.8654767    
  11426000   1252.5318     -423.80356      0             -401.13721      4.499962     
  11427000   990.7729      -420.80915      0             -402.87971      1.3231662    
  11428000   1084.8657     -422.00233      0             -402.37014     -5.5788342    
  11429000   1235.6348     -419.86902      0             -397.50845     -2.641465     
  11430000   1144.1063     -423.64751      0             -402.94328     -1.7095264    
  11431000   1117.7798     -423.28062      0             -403.05281     -5.3482274    
  11432000   994.63162     -420.96055      0             -402.96128     -11.218167    
  11433000   1007.7728     -420.87576      0             -402.63868     -4.3071174    
  11434000   1136.7178     -425.33064      0             -404.76012      7.5603495    
  11435000   1009.2491     -424.40353      0             -406.13973      8.2441664    
  11436000   1261.6326     -420.09269      0             -397.26165     -2.7423353    
  11437000   1151.0393     -424.11134      0             -403.28165      6.8944718    
  11438000   1140.8392     -424.27722      0             -403.63211      1.464029     
  11439000   1052.754      -420.38563      0             -401.33455      7.4942117    
  11440000   1242.263      -422.17409      0             -399.69358      2.8307724    
  11441000   1027.4677     -422.82316      0             -404.22967      3.0034435    
  11442000   1046.562      -419.82866      0             -400.88964      3.3934672    
  11443000   1029.4198     -419.09274      0             -400.46393     -6.1286476    
  11444000   1040.7758     -420.58293      0             -401.74862     -5.8105938    
  11445000   979.2639      -422.79735      0             -405.07618     -2.2725364    
  11446000   1275.8564     -424.25504      0             -401.16661      1.3067649    
  11447000   1120.866      -419.67977      0             -399.39611      4.9339643    
  11448000   1164.9786     -419.39562      0             -398.31368      4.6120972    
  11449000   1103.3594     -420.97818      0             -401.01133     -3.8094532    
  11450000   1073.0964     -418.78168      0             -399.36248     -1.4928971    
  11451000   1089.9367     -422.98786      0             -403.26391     -0.81700572   
  11452000   1038.3523     -421.45109      0             -402.66063      1.7441236    
  11453000   1036.6661     -424.19346      0             -405.43352      3.3060874    
  11454000   1083.9726     -422.91589      0             -403.29987      5.7818253    
  11455000   1062.8596     -421.07908      0             -401.84512      9.6181749    
  11456000   1032.901      -422.97628      0             -404.28447      4.0282354    
  11457000   1107.7669     -422.66816      0             -402.62154      3.9676777    
  11458000   1220.6832     -420.88266      0             -398.79266      1.5883161    
  11459000   1074.8536     -424.13305      0             -404.68205      2.2484293    
  11460000   1139.5443     -421.44826      0             -400.82659      3.8571417    
  11461000   1233.2383     -422.25431      0             -399.93711      8.9715853    
  11462000   1042.8978     -424.52003      0             -405.64732      2.7761475    
  11463000   1019.2423     -420.8882       0             -402.44356     -2.1864133    
  11464000   958.08655     -419.27699      0             -401.93906      0.26630764   
  11465000   1156.0821     -423.045        0             -402.12406      4.8156502    
  11466000   952.93356     -421.74239      0             -404.4977       17.365828    
  11467000   1125.6276     -424.99206      0             -404.62223      3.3742742    
  11468000   1023.0709     -420.97408      0             -402.46016     -3.0687378    
  11469000   1115.5802     -420.8368       0             -400.64879     -9.6765737    
  11470000   1082.7724     -419.93183      0             -400.33753     -13.800946    
  11471000   1192.6415     -415.62808      0             -394.04554     -12.1158      
  11472000   1069.262      -420.18631      0             -400.8365       1.4263245    
  11473000   1137.0658     -417.79537      0             -397.21855     -3.1566736    
  11474000   1037.5321     -421.53276      0             -402.75715     -0.17269952   
  11475000   1094.3951     -420.93003      0             -401.12539     -6.2635647    
  11476000   1082.3946     -417.91229      0             -398.32482     -11.793396    
  11477000   1067.9023     -420.75376      0             -401.42855      1.5076152    
  11478000   1098.5696     -422.78854      0             -402.90837     -3.35428      
  11479000   1085.4615     -420.16242      0             -400.51945      2.5370254    
  11480000   1157.1796     -419.03018      0             -398.08937      4.7256812    
  11481000   1112.862      -421.87767      0             -401.73885      4.5762499    
  11482000   1163.9033     -421.15208      0             -400.08959      3.2527745    
  11483000   1049.7184     -420.29641      0             -401.30026     -5.1537267    
  11484000   1188.4656     -418.37819      0             -396.87122     -4.3926964    
  11485000   1116.2218     -421.47269      0             -401.27307     -2.6349736    
  11486000   1097.1071     -423.63008      0             -403.77637      6.7229804    
  11487000   1196.3498     -420.54385      0             -398.8942       2.5872143    
  11488000   1114.8319     -420.89656      0             -400.72209      0.90326939   
  11489000   1213.7549     -419.8515       0             -397.88688     -1.1053349    
  11490000   1083.2656     -423.22846      0             -403.62523     -5.1938486    
  11491000   1175.8973     -419.96626      0             -398.68673     -0.47304172   
  11492000   1190.3264     -417.66609      0             -396.12545      3.3655223    
  11493000   1024.2067     -420.21292      0             -401.67844      10.940917    
  11494000   1060.0853     -420.16165      0             -400.97791     -0.87050212   
  11495000   1104.7948     -420.24275      0             -400.24992     -3.2239327    
  11496000   931.44494     -419.52721      0             -402.67139     -4.0245704    
  11497000   1150.5599     -419.81649      0             -398.99547     -0.4320357    
  11498000   1092.6417     -424.11001      0             -404.33711      0.10908828   
  11499000   1147.3207     -420.55904      0             -399.79664      1.6349531    
  11500000   1106.7743     -422.83744      0             -402.80879      0.55463783   
  11501000   1105.4729     -421.1975       0             -401.1924       6.9915167    
  11502000   1147.5253     -423.4157       0             -402.6496       5.2650981    
  11503000   1147.3965     -423.54077      0             -402.777        0.38083989   
  11504000   972.85856     -421.38452      0             -403.77927      5.7554879    
  11505000   1190.3446     -423.29053      0             -401.74955      2.0980395    
  11506000   1011.8221     -424.09313      0             -405.78278     -6.2440164    
  11507000   976.08732     -419.7963       0             -402.13262     -1.7448399    
  11508000   1217.2603     -423.03938      0             -401.01132      5.1845292    
  11509000   1036.9922     -421.47259      0             -402.70674      4.6500892    
  11510000   1077.0766     -425.15826      0             -405.66703      8.9971061    
  11511000   1117.0108     -423.19769      0             -402.98379     -0.27871925   
  11512000   1203.1384     -422.15166      0             -400.37917     -7.4372064    
  11513000   1187.8309     -420.51188      0             -399.01639     -1.4115012    
  11514000   1003.4425     -422.74404      0             -404.58533      3.3354989    
  11515000   1080.3451     -424.41401      0             -404.86363     -3.7021499    
  11516000   1032.6112     -421.55115      0             -402.86458     -0.67582578   
  11517000   1030.1713     -422.5522       0             -403.90979     -7.0826738    
  11518000   903.57866     -423.52228      0             -407.17074     -4.605928     
  11519000   969.64471     -418.11875      0             -400.57166     -8.9671264    
  11520000   1021.4142     -422.04475      0             -403.56081     -1.2791505    
  11521000   1093.2321     -424.40833      0             -404.62475     -9.6612737    
  11522000   1143.2111     -421.28331      0             -400.59528     -1.7531513    
  11523000   971.45602     -423.10547      0             -405.52559      7.0127785    
  11524000   1058.4852     -419.93792      0             -400.78312     -2.7978306    
  11525000   1111.2714     -424.70212      0             -404.59208     -2.3072242    
  11526000   1159.2525     -423.49773      0             -402.51941     -4.2212239    
  11527000   1122.872      -425.48416      0             -405.16419     -1.3485064    
  11528000   1022.7051     -420.36744      0             -401.86013      5.3108431    
  11529000   1080.5986     -422.64083      0             -403.08586     -2.3239394    
  11530000   1039.2738     -423.13985      0             -404.33272      1.2505523    
  11531000   1077.8653     -422.79806      0             -403.29256     -10.375008    
  11532000   1104.9827     -421.42591      0             -401.42967     -1.2696491    
  11533000   1034.6583     -423.15111      0             -404.4275      -5.6619975    
  11534000   1071.3116     -419.48247      0             -400.09557      0.068250731  
  11535000   1064.4846     -424.00079      0             -404.73743     -3.7795011    
  11536000   1077.4065     -419.93663      0             -400.43942      6.0555426    
  11537000   973.92787     -424.20485      0             -406.58024      4.4924704    
  11538000   1087.511      -423.77912      0             -404.09906     -3.151017     
  11539000   1086.9922     -423.68312      0             -404.01246     -1.4437807    
  11540000   1032.8034     -423.04627      0             -404.35622     -2.1150743    
  11541000   925.16195     -423.90578      0             -407.16366      0.60509771   
  11542000   1152.968      -422.25226      0             -401.38766     -1.9360434    
  11543000   971.21423     -421.8259       0             -404.2504      -8.8839128    
  11544000   1170.3593     -417.54113      0             -396.36182     -14.413579    
  11545000   1199.2929     -423.3495       0             -401.64659     -4.8291673    
  11546000   1125.304      -420.61915      0             -400.25517      5.7524679    
  11547000   1046.3371     -418.28833      0             -399.35338      11.807067    
  11548000   1232.956      -422.35606      0             -400.04397     -8.301238     
  11549000   1098.2173     -420.96784      0             -401.09403      1.5866589    
  11550000   947.08746     -422.90516      0             -405.76627     -9.2650624    
Loop time of 108.104 on 1 procs for 500000 steps with 141 atoms

Performance: 399.617 ns/day, 0.060 hours/ns, 4625.195 timesteps/s, 652.152 katom-step/s
100.0% CPU use with 1 MPI tasks x 1 OpenMP threads

MPI task timing breakdown:
Section |  min time  |  avg time  |  max time  |%varavg| %total
---------------------------------------------------------------
Pair    | 105.4      | 105.4      | 105.4      |   0.0 | 97.50
Neigh   | 0.6506     | 0.6506     | 0.6506     |   0.0 |  0.60
Comm    | 0.11192    | 0.11192    | 0.11192    |   0.0 |  0.10
Output  | 0.02746    | 0.02746    | 0.02746    |   0.0 |  0.03
Modify  | 1.5845     | 1.5845     | 1.5845     |   0.0 |  1.47
Other   |            | 0.3302     |            |       |  0.31

Nlocal:            141 ave         141 max         141 min
Histogram: 1 0 0 0 0 0 0 0 0 0
Nghost:              0 ave           0 max           0 min
Histogram: 1 0 0 0 0 0 0 0 0 0
Neighs:           5844 ave        5844 max        5844 min
Histogram: 1 0 0 0 0 0 0 0 0 0

Total # of neighbors = 5844
Ave neighs/atom = 41.446809
Neighbor list builds = 5319
Dangerous builds = 0

unfix 1
undump 1
next j
jump SELF loop_j
Total wall time: 0:42:51
