LAMMPS (2 Aug 2023 - Update 3)
OMP_NUM_THREADS environment is not set. Defaulting to 1 thread. (src/comm.cpp:98)
  using 1 OpenMP thread(s) per MPI task
units lj
boundary p p p
atom_style atomic

lattice fcc 1.073
Lattice spacing in x,y,z = 1.5505535 1.5505535 1.5505535
region box block 0 10 0 10 0 10
create_box 1 box
Created orthogonal box = (0 0 0) to (15.505535 15.505535 15.505535)
  1 by 1 by 1 MPI processor grid
create_atoms 1 box
Created 4000 atoms
  using lattice units in orthogonal box = (0 0 0) to (15.505535 15.505535 15.505535)
  create_atoms CPU = 0.002 seconds
mass 1 1.0

pair_style lj/cut 5.0
pair_coeff 1 1 1.0 1.0 5.0
velocity all create 0.01 87287

timestep 0.005

# Equilibrium step
fix 1 all nvt temp 0.85 0.85 0.2
run 50000
Generated 0 of 0 mixed pair_coeff terms from geometric mixing rule
Neighbor list info ...
  update: every = 1 steps, delay = 0 steps, check = yes
  max neighbors/atom: 2000, page size: 100000
  master list distance cutoff = 5.3
  ghost atom cutoff = 5.3
  binsize = 2.65, bins = 6 6 6
  1 neighbor lists, perpetual/occasional/extra = 1 0 0
  (1) pair lj/cut, perpetual
      attributes: half, newton on
      pair build: half/bin/atomonly/newton
      stencil: half/bin/3d
      bin: standard
Per MPI rank memory allocation (min/avg/max) = 10.96 | 10.96 | 10.96 Mbytes
   Step          Temp          E_pair         E_mol          TotEng         Press     
         0   0.01          -8.5277019      0             -8.5127056     -1.0342571    
     50000   0.83957762    -7.3552411      0             -6.0961895      6.4268397    
Loop time of 1088.47 on 1 procs for 50000 steps with 4000 atoms

Performance: 19844.412 tau/day, 45.936 timesteps/s, 183.745 katom-step/s
100.0% CPU use with 1 MPI tasks x 1 OpenMP threads

MPI task timing breakdown:
Section |  min time  |  avg time  |  max time  |%varavg| %total
---------------------------------------------------------------
Pair    | 877.22     | 877.22     | 877.22     |   0.0 | 80.59
Neigh   | 201.92     | 201.92     | 201.92     |   0.0 | 18.55
Comm    | 4.889      | 4.889      | 4.889      |   0.0 |  0.45
Output  | 3.757e-05  | 3.757e-05  | 3.757e-05  |   0.0 |  0.00
Modify  | 3.0349     | 3.0349     | 3.0349     |   0.0 |  0.28
Other   |            | 1.405      |            |       |  0.13

Nlocal:           4000 ave        4000 max        4000 min
Histogram: 1 0 0 0 0 0 0 0 0 0
Nghost:          14012 ave       14012 max       14012 min
Histogram: 1 0 0 0 0 0 0 0 0 0
Neighs:    1.32102e+06 ave 1.32102e+06 max 1.32102e+06 min
Histogram: 1 0 0 0 0 0 0 0 0 0

Total # of neighbors = 1321021
Ave neighs/atom = 330.25525
Neighbor list builds = 6204
Dangerous builds = 0
unfix 1

# Heating step
reset_timestep 0
thermo 1000
thermo_style custom step temp pe etotal press vol
fix 1 all npt temp 0.85 0.01 1.0 iso 0 0 1.0
dump 1 all atom 10000 quench.lammpstrj
run 1000000
Generated 0 of 0 mixed pair_coeff terms from geometric mixing rule
Per MPI rank memory allocation (min/avg/max) = 10.97 | 10.97 | 10.97 Mbytes
   Step          Temp          PotEng         TotEng         Press          Volume    
         0   0.83957762    -7.3552411     -6.0961895      6.4268397      3727.8658    
      1000   0.78999228    -6.8749997     -5.6903075      0.040708823    4308.7671    
      2000   0.8463882     -6.4016832     -5.1324183      0.027733153    4546.2951    
      3000   0.77602707    -5.7743116     -4.610562       0.036138033    4932.3004    
      4000   0.84484538    -5.3747525     -4.1078013      0.096009234    5218.9298    
      5000   0.84461325    -5.4416633     -4.1750602     -0.099053599    5196.2809    
      6000   0.84311241    -5.3662246     -4.1018721     -0.0095769382   5240.4905    
      7000   0.85390666    -5.4459236     -4.1653838     -0.032346303    5184.2872    
      8000   0.84782       -5.4599057     -4.1884936      0.13101151     5154.096     
      9000   0.84726626    -5.4303796     -4.1597979      0.057020152    5176.5667    
     10000   0.82179386    -5.4506117     -4.218229       0.063709714    5160.6224    
     11000   0.84327867    -5.461363      -4.1967612      0.042562165    5159.8657    
     12000   0.82931825    -5.3952626     -4.1515962      0.028236229    5214.2515    
     13000   0.82857493    -5.5114511     -4.2688995      0.028808135    5120.6964    
     14000   0.84089712    -5.4340515     -4.1730212     -0.041379982    5196.5386    
     15000   0.83726908    -5.4850935     -4.2295038     -0.035730719    5154.1519    
     16000   0.84295065    -5.457407      -4.1932972      0.041765128    5164.4874    
     17000   0.83854514    -5.4163248     -4.1588215     -0.057293954    5210.2681    
     18000   0.83757606    -5.4934709     -4.2374209      0.06086318     5132.7198    
     19000   0.83026586    -5.4482956     -4.2032082     -0.056671629    5189.83      
     20000   0.8394438     -5.5389911     -4.2801402      0.14416259     5088.1401    
     21000   0.83722318    -5.4398711     -4.1843503     -0.14275814     5209.7184    
     22000   0.83291243    -5.4948771     -4.2458208      0.10429112     5136.9271    
     23000   0.83453049    -5.4624897     -4.211007      -0.059605719    5178.9603    
     24000   0.82080774    -5.4807037     -4.2497999     -0.0045800857   5154.1677    
     25000   0.83339368    -5.4810771     -4.2312991     -0.024702578    5160.1587    
     26000   0.80143092    -5.4591239     -4.2572781     -0.0077647078   5172.1409    
     27000   0.82166685    -5.5114127     -4.2792206      0.060741431    5117.1116    
     28000   0.8091702     -5.4638828     -4.250431      -0.035104399    5171.6584    
     29000   0.83258929    -5.5029349     -4.2543631      0.034081687    5125.3164    
     30000   0.83396502    -5.4679099     -4.2172751     -0.058338967    5162.9757    
     31000   0.83491816    -5.4943358     -4.2422716     -0.041936402    5150.2706    
     32000   0.8355606     -5.5293257     -4.2762981     -0.00013868773  5113.7366    
     33000   0.81546249    -5.4950548     -4.2721668      0.10871496     5122.9875    
     34000   0.80650076    -5.5443343     -4.3348856     -0.01009498     5102.7559    
     35000   0.82222852    -5.5308152     -4.2977808      0.061062898    5109.8204    
     36000   0.83109       -5.5622213     -4.315898       0.077894563    5084.4902    
     37000   0.81439856    -5.5137635     -4.2924711     -0.066484321    5136.7667    
     38000   0.83989105    -5.5205148     -4.2609932     -0.057578791    5136.526     
     39000   0.81490837    -5.5458896     -4.3238327     -0.015041018    5101.0488    
     40000   0.8124979     -5.5348073     -4.3163651      0.0049371385   5115.39      
     41000   0.83239468    -5.502812      -4.2545321     -0.19704616     5167.6092    
     42000   0.79822476    -5.5455431     -4.3485053     -0.06491124     5113.7001    
     43000   0.81072188    -5.5307267     -4.3149479     -0.04100251     5112.8162    
     44000   0.79516595    -5.5891414     -4.3966907     -0.037571735    5076.9138    
     45000   0.81847192    -5.5731521     -4.3457511     -0.0882273      5095.4582    
     46000   0.82705569    -5.5651638     -4.3248904     -0.025749731    5086.3132    
     47000   0.80032383    -5.5878312     -4.3876456      0.025645509    5070.5154    
     48000   0.81305408    -5.5850837     -4.3658075      0.052545322    5065.9168    
     49000   0.81832251    -5.5196822     -4.2925053      0.09816586     5097.3958    
     50000   0.80195048    -5.6049998     -4.4023748      0.034324553    5050.0127    
     51000   0.81296799    -5.5839521     -4.364805      -0.13939463     5096.7863    
     52000   0.83442703    -5.5837626     -4.332435       0.070208764    5064.0403    
     53000   0.79375067    -5.5596916     -4.3693633     -0.12443973     5112.4382    
     54000   0.80132762    -5.5348908     -4.3331999     -0.0060408393   5109.39      
     55000   0.79756341    -5.6353216     -4.4392756      0.0061891674   5031.8169    
     56000   0.81055215    -5.5866631     -4.3711389      0.023086617    5068.8922    
     57000   0.80557428    -5.5945438     -4.3864845      0.030140207    5068.7448    
     58000   0.79294855    -5.5964103     -4.4072848     -0.065338374    5072.0121    
     59000   0.81611429    -5.5953796     -4.3715142     -0.023743674    5064.5105    
     60000   0.78707508    -5.6107625     -4.4304451      0.051816031    5051.1489    
     61000   0.80633828    -5.5892071     -4.3800021     -0.079834203    5083.9941    
     62000   0.79190179    -5.6218197     -4.434264      -0.12470289     5060.8459    
     63000   0.80586622    -5.6190534     -4.4105563      0.050413331    5039.4907    
     64000   0.77758878    -5.5941977     -4.4281061     -0.072293883    5072.2323    
     65000   0.8041975     -5.5668844     -4.3608898     -0.093581882    5097.4287    
     66000   0.78959482    -5.6481117     -4.4640156     -0.039643719    5025.7619    
     67000   0.81764058    -5.6546147     -4.4284604      0.08510204     5012.187     
     68000   0.7947283     -5.60369       -4.4118956      0.00034046146  5053.6714    
     69000   0.80098075    -5.6642027     -4.4630319      0.024489184    5012.2105    
     70000   0.7859946     -5.6969021     -4.518205       0.10278345     4980.3835    
     71000   0.80236949    -5.6246053     -4.421352       0.0013606851   5041.6051    
     72000   0.78529037    -5.634045      -4.4564039      0.087145057    5027.1135    
     73000   0.79649163    -5.6273775     -4.4329388      0.051348588    5031.9738    
     74000   0.77307098    -5.6599752     -4.5006587      0.026149027    5010.8258    
     75000   0.77288017    -5.6753376     -4.5163071      0.023248789    4999.8128    
     76000   0.79491528    -5.6747768     -4.4827019     -0.05578641     5013.9088    
     77000   0.79344122    -5.6272361     -4.4373718      0.051117474    5026.3777    
     78000   0.78071062    -5.691486      -4.5207128     -0.043686611    4999.6034    
     79000   0.7958592     -5.6213042     -4.4278138      0.018380069    5043.8295    
     80000   0.77888844    -5.6753557     -4.5073152      0.071058174    4993.8481    
     81000   0.77969414    -5.6002725     -4.4310237     -0.038217368    5059.7718    
     82000   0.77678554    -5.7103285     -4.5454415     -0.069781879    4995.1087    
     83000   0.77671351    -5.6912255     -4.5264465      0.25286636     4954.3664    
     84000   0.7857703     -5.672766      -4.4944052     -0.085330203    5018.6299    
     85000   0.78437349    -5.7402626     -4.5639965      0.066797701    4949.5048    
     86000   0.77942619    -5.6890501     -4.5202031     -0.0040919725   4997.2615    
     87000   0.7749552     -5.6992584     -4.5371162      0.13071842     4973.6619    
     88000   0.77536538    -5.7414657     -4.5787084      0.13806585     4937.0117    
     89000   0.76539705    -5.6380376     -4.490229      -0.10046341     5040.8454    
     90000   0.77108142    -5.708552      -4.5522191     -0.072146918    4990.9101    
     91000   0.76501236    -5.6987401     -4.5515084      0.060365261    4980.9007    
     92000   0.76077047    -5.7130433     -4.5721729     -0.0035891253   4975.8704    
     93000   0.7730232     -5.6867655     -4.5275205      0.10910265     4979.4534    
     94000   0.77871007    -5.6839793     -4.5162062     -0.047226263    5005.5886    
     95000   0.77685085    -5.7076655     -4.5426805      0.0037868038   4982.0807    
     96000   0.77264493    -5.7425099     -4.5838323      0.13484441     4939.3875    
     97000   0.76526138    -5.7005407     -4.5529356     -0.090510259    4993.5821    
     98000   0.77859392    -5.7261689     -4.55857       -0.027164168    4976.2536    
     99000   0.74813957    -5.7587739     -4.6368451     -0.080697463    4953.1783    
    100000   0.75706492    -5.744739      -4.6094255     -0.0059758912   4956.9404    
    101000   0.76464499    -5.7264399     -4.5797591     -0.044697144    4971.3074    
    102000   0.74460308    -5.804499      -4.6878736      0.031627102    4900.6857    
    103000   0.75210894    -5.7200254     -4.5921441     -0.10587726     4986.1048    
    104000   0.75249557    -5.7685101     -4.6400489     -0.053255069    4943.7014    
    105000   0.75217552    -5.7466741     -4.6186929     -0.098780406    4967.3129    
    106000   0.75952542    -5.7888688     -4.6498655     -0.0023022326   4924.9377    
    107000   0.75589124    -5.7691448     -4.6355914      0.00011996236  4937.7194    
    108000   0.78664055    -5.7299404     -4.5502745     -0.073979102    4974.8347    
    109000   0.74335603    -5.757557      -4.6428017     -0.096061219    4958.9424    
    110000   0.75183846    -5.8018571     -4.6743813      0.054249033    4909.7013    
    111000   0.75194875    -5.7682569     -4.6406158     -0.096740866    4950.1787    
    112000   0.76508726    -5.7741152     -4.6267713     -0.052934609    4940.9935    
    113000   0.76029754    -5.7727078     -4.6325466      0.014394497    4933.7934    
    114000   0.76558228    -5.7803254     -4.632239       0.0030812725   4931.259     
    115000   0.75390553    -5.7987676     -4.668192      -0.04238531     4921.6573    
    116000   0.75407045    -5.7665725     -4.6357496      0.064824278    4928.9207    
    117000   0.76287472    -5.7975675     -4.6535415      0.031762483    4917.4902    
    118000   0.75082024    -5.8058507     -4.6799019      0.017026665    4914.594     
    119000   0.7569005     -5.7869266     -4.6518597     -0.12613734     4940.5142    
    120000   0.73027648    -5.8040523     -4.7089114      0.01834981     4915.6499    
    121000   0.75247403    -5.8384509     -4.710022      -0.10885815     4898.4741    
    122000   0.74934454    -5.7920219     -4.6682861      0.0086697463   4923.5922    
    123000   0.7376192     -5.8214549     -4.7153027     -0.1724173      4922.4348    
    124000   0.73941892    -5.8056839     -4.6968328      0.021871024    4909.3673    
    125000   0.73322319    -5.8201554     -4.7205956     -0.11036369     4915.581     
    126000   0.73830802    -5.8075948     -4.7004096     -0.00061108779  4910.6841    
    127000   0.74354125    -5.8138348     -4.6988017      0.0049675937   4903.3792    
    128000   0.76181436    -5.8555816     -4.7131458     -0.11023642     4892.7773    
    129000   0.7314952     -5.8725554     -4.7755869      0.012322407    4865.8843    
    130000   0.74616638    -5.8249847     -4.7060149      0.030261071    4892.9019    
    131000   0.74382916    -5.8620113     -4.7465465     -0.041960402    4878.5337    
    132000   0.73943631    -5.8467345     -4.7378574      0.0011488892   4887.1421    
    133000   0.74466815    -5.878989      -4.762266       0.11311483     4853.6375    
    134000   0.74024903    -5.8587333     -4.7486374     -0.019307783    4877.2569    
    135000   0.71980365    -5.855638      -4.7762024      0.012080607    4872.1143    
    136000   0.73917107    -5.8491347     -4.7406553     -0.080967233    4891.9418    
    137000   0.75084443    -5.8844282     -4.7584432     -0.051166634    4868.6645    
    138000   0.7430647     -5.9000161     -4.7856977      0.15831131     4830.4319    
    139000   0.7280122     -5.8869829     -4.7952376     -0.05171596     4869.079     
    140000   0.74254918    -5.875266      -4.7617207     -0.12604528     4884.8288    
    141000   0.72748195    -5.851785      -4.7608349      0.20905199     4858.8576    
    142000   0.71199798    -5.8773787     -4.8096487      0.018079374    4859.3779    
    143000   0.72689762    -5.8632298     -4.7731559     -0.033282081    4874.0729    
    144000   0.7174513     -5.8795308     -4.8036229      0.066059303    4852.6055    
    145000   0.73640046    -5.8372912     -4.7329667      0.035918631    4888.7213    
    146000   0.70704841    -5.901797      -4.8414896     -0.085207665    4853.9506    
    147000   0.72774136    -5.9017324     -4.8103933      0.070634786    4844.8823    
    148000   0.72837354    -5.8987051     -4.8064179      0.053970151    4841.3926    
    149000   0.71190587    -5.8634395     -4.7958476     -0.024615166    4871.6671    
    150000   0.74446306    -5.8739927     -4.7575773     -0.016468952    4867.7       
    151000   0.71745464    -5.9182067     -4.8422938     -0.035787954    4841.3547    
    152000   0.74479716    -5.9382726     -4.8213561     -0.020662354    4827.9875    
    153000   0.71961232    -5.8990098     -4.8198612     -0.0059750258   4849.7894    
    154000   0.70475999    -5.8961134     -4.8392377     -0.11074321     4860.7392    
    155000   0.69842039    -5.9072526     -4.859884       0.048402047    4832.9979    
    156000   0.71829636    -5.9231692     -4.845994      -0.033923938    4835.7231    
    157000   0.739003      -5.9326519     -4.8244246      0.1313694      4810.4396    
    158000   0.70828278    -5.9902527     -4.9280941      0.11280092     4776.8085    
    159000   0.70522978    -5.8950393     -4.8374591     -0.054956464    4857.4351    
    160000   0.71358263    -5.9300793     -4.859973      -0.048006902    4833.2589    
    161000   0.72064759    -5.9733436     -4.8926425     -0.08468392     4810.5532    
    162000   0.71658492    -5.9045843     -4.8299756     -0.068344147    4855.1722    
    163000   0.7175904     -5.9645268     -4.8884103      0.06165376     4797.581     
    164000   0.71329257    -5.9527728     -4.8831014      0.027582773    4806.9343    
    165000   0.70596184    -5.9988784     -4.9402004      0.052213061    4777.068     
    166000   0.7119307     -5.9500547     -4.8824257     -0.12500426     4829.0748    
    167000   0.70923693    -5.9923239     -4.9287345     -0.009486324    4792.894     
    168000   0.70554189    -5.970916      -4.9128678     -0.017782557    4804.0195    
    169000   0.71498706    -5.9398677     -4.8676553     -0.062127888    4828.3293    
    170000   0.70154742    -5.9835327     -4.9314747      0.039722113    4786.5521    
    171000   0.71661359    -5.9904887     -4.915837      -0.085947258    4798.6545    
    172000   0.71352       -6.0176298     -4.9476174      0.09104044     4765.6958    
    173000   0.71572611    -5.9689021     -4.8955814     -0.088002102    4812.863     
    174000   0.71857174    -5.9711058     -4.8935176      0.06335929     4791.4808    
    175000   0.70401957    -5.9930139     -4.9372485      0.067937911    4779.1657    
    176000   0.6943557     -5.9709779     -4.9297047      0.065888315    4792.8752    
    177000   0.70755272    -6.0001348     -4.9390711      0.015136792    4782.9466    
    178000   0.70096334    -5.9963892     -4.9452071     -0.015145079    4786.5552    
    179000   0.69667334    -5.9653675     -4.9206188     -0.057262462    4814.3441    
    180000   0.70269442    -5.9957157     -4.9419376     -0.077455788    4799.6642    
    181000   0.69555795    -5.999506      -4.9564299     -0.033803593    4789.4253    
    182000   0.69394185    -6.0148053     -4.9741528      0.065791585    4763.8713    
    183000   0.68472311    -5.9837929     -4.956965      -0.04198954     4797.1218    
    184000   0.69784606    -6.0089816     -4.9624742      0.0067728013   4775.0937    
    185000   0.67651806    -6.0206602     -5.0061368      0.070401888    4759.7815    
    186000   0.70106867    -6.0299475     -4.9786074     -0.038342299    4768.1972    
    187000   0.7072984     -6.0168837     -4.9562014      0.099343639    4762.3556    
    188000   0.68615784    -6.0277744     -4.9987949      0.12973685     4753.197     
    189000   0.71485607    -6.0607472     -4.9887312     -0.088194551    4758.6883    
    190000   0.70874004    -6.0333509     -4.9705066      0.22606663     4738.7749    
    191000   0.70490698    -6.0606846     -5.0035884     -0.01406783     4745.5946    
    192000   0.68680943    -6.0228286     -4.9928721      0.011828176    4769.4204    
    193000   0.67691156    -6.0754602     -5.0603467     -0.0096445452   4739.8192    
    194000   0.67255852    -6.0241108     -5.0155253      0.01599371     4761.3123    
    195000   0.69320751    -6.0232937     -4.9837424      0.085559183    4760.2177    
    196000   0.68695061    -6.0641589     -5.0339906      0.21174356     4718.4052    
    197000   0.67711123    -6.0348991     -5.0194862     -0.073897601    4765.7574    
    198000   0.67568628    -6.0865436     -5.0732676     -0.025446972    4730.1726    
    199000   0.69643455    -6.052123      -5.0077323      0.044937659    4748.2489    
    200000   0.67941365    -6.0803397     -5.061474      -0.12735        4747.4617    
    201000   0.68856047    -6.1009679     -5.0683854      0.18001691     4701.5821    
    202000   0.69757746    -6.0568729     -5.0107683      0.0091618261   4747.4149    
    203000   0.67991206    -6.09462       -5.0750068     -0.026294772    4726.7239    
    204000   0.68505811    -6.06817       -5.0408397      0.018562534    4738.0803    
    205000   0.67042015    -6.1087987     -5.1034199      0.034916969    4709.3031    
    206000   0.67568844    -6.0936129     -5.0803337     -0.042724691    4733.1365    
    207000   0.67307735    -6.0601141     -5.0507504      0.08809179     4732.085     
    208000   0.68540519    -6.0594083     -5.0315576      0.011335026    4747.339     
    209000   0.67711777    -6.1033714     -5.0879487      0.023769767    4715.1261    
    210000   0.6715222     -6.1278156     -5.1207841      0.13801665     4686.8749    
    211000   0.65607478    -6.0656561     -5.08179        0.0077079299   4738.6393    
    212000   0.68223878    -6.13471       -5.1116077     -0.06388664     4707.0617    
    213000   0.66614608    -6.086047      -5.0870777     -0.023019805    4734.6336    
    214000   0.65243753    -6.1092296     -5.1308179      0.055594069    4704.9611    
    215000   0.67842657    -6.1354859     -5.1181004      0.16394445     4682.2098    
    216000   0.66837087    -6.0900784     -5.0877728      0.0024769455   4727.5369    
    217000   0.66176713    -6.1095623     -5.1171597      0.15834847     4694.3356    
    218000   0.66691723    -6.1162673     -5.1161415     -0.037494183    4716.0635    
    219000   0.66483684    -6.1823641     -5.1853582     -0.061551213    4677.9219    
    220000   0.66562829    -6.1225574     -5.1243646      0.022270163    4705.8355    
    221000   0.67617681    -6.1546264     -5.1406147     -0.056387239    4695.6606    
    222000   0.64925864    -6.1607121     -5.1870676      0.007962503    4681.7772    
    223000   0.67789135    -6.1590166     -5.1424338      0.078756504    4670.9065    
    224000   0.6776459     -6.144755      -5.1285403     -0.0014342893   4692.6056    
    225000   0.67326421    -6.1400136     -5.1303698      0.01012971     4693.8506    
    226000   0.68066522    -6.1796704     -5.1589279      0.0055692308   4674.0486    
    227000   0.65401842    -6.1647971     -5.1840148      0.0044625652   4677.1238    
    228000   0.66283166    -6.1656286     -5.1716296     -0.033679729    4685.3366    
    229000   0.65301442    -6.1253455     -5.1460687     -0.011881856    4703.7803    
    230000   0.65901143    -6.1643134     -5.1760434      0.10338596     4672.1126    
    231000   0.64141768    -6.1808624     -5.2189765      0.0042225664   4670.3876    
    232000   0.653976      -6.1745592     -5.1938405     -0.063544344    4680.2636    
    233000   0.65969443    -6.1502356     -5.1609414      0.10627392     4679.718     
    234000   0.66025666    -6.1922206     -5.2020832      0.030841718    4660.1186    
    235000   0.66896026    -6.1723127     -5.1691232      0.10182881     4666.0954    
    236000   0.64794568    -6.1750856     -5.20341       -0.028473408    4678.263     
    237000   0.64864966    -6.1968354     -5.2241042      0.12108364     4648.0798    
    238000   0.64798603    -6.2170141     -5.245278       0.06737908     4644.0026    
    239000   0.64762453    -6.208284      -5.23709       -0.05474383     4658.9835    
    240000   0.66713074    -6.2032942     -5.2028482     -0.099493186    4669.4406    
    241000   0.63962742    -6.1989693     -5.239768       0.033139437    4655.8068    
    242000   0.64790061    -6.1699848     -5.1983769      0.020569928    4675.2199    
    243000   0.65708693    -6.204575      -5.219191      -0.030942545    4661.3735    
    244000   0.65574964    -6.2418139     -5.2584353      0.052069983    4630.06      
    245000   0.65013468    -6.2102788     -5.2353205      0.0029789545   4654.7593    
    246000   0.64452101    -6.2099123     -5.2433725     -0.11179681     4667.213     
    247000   0.64570206    -6.2445926     -5.2762816     -0.081654263    4642.5574    
    248000   0.6268496     -6.2361728     -5.2961335      0.023960942    4635.0032    
    249000   0.63003479    -6.2390866     -5.2942707     -0.12063651     4647.5735    
    250000   0.64213673    -6.2291087     -5.2661444      0.09681135     4630.4039    
    251000   0.63930606    -6.2433018     -5.2845824     -0.0034399961   4635.6203    
    252000   0.63685802    -6.2011933     -5.2461451      0.035737907    4655.0013    
    253000   0.6447305     -6.2098184     -5.2429645     -0.067943011    4660.5009    
    254000   0.6430353     -6.2507582     -5.2864464     -0.028417914    4630.737     
    255000   0.63917007    -6.2231818     -5.2646664     -0.053841809    4649.0246    
    256000   0.63884853    -6.207203      -5.2491698     -0.024185435    4657.6878    
    257000   0.62562342    -6.269223      -5.3310224     -0.042172117    4625.5737    
    258000   0.63506751    -6.2204066     -5.2680435     -0.055338883    4653.7214    
    259000   0.62839489    -6.2510672     -5.3087105      0.11325036     4616.1227    
    260000   0.61911302    -6.2851185     -5.3566811      0.066324217    4604.1302    
    261000   0.61636964    -6.2582267     -5.3339034     -0.039032973    4624.3683    
    262000   0.63445057    -6.2541214     -5.3026834     -0.055442723    4632.734     
    263000   0.61683673    -6.2782365     -5.3532127     -0.056642908    4619.9228    
    264000   0.63578895    -6.2953186     -5.3418736     -0.062355633    4608.4196    
    265000   0.62456603    -6.2360502     -5.2994354     -0.084483429    4643.2136    
    266000   0.61898161    -6.2685237     -5.3402834     -0.0055847028   4617.8833    
    267000   0.61217597    -6.2630777     -5.3450433     -0.011816946    4621.5104    
    268000   0.63824009    -6.2564787     -5.2993579     -0.0068671625   4626.2591    
    269000   0.63258148    -6.2743243     -5.3256893     -0.0040189311   4615.2594    
    270000   0.62318215    -6.3032102     -5.3686706      0.055895341    4595.473     
    271000   0.61336741    -6.2883996     -5.3685785      0.097074687    4597.7128    
    272000   0.61230018    -6.3124973     -5.3942767     -0.058913707    4596.4748    
    273000   0.63374596    -6.2642486     -5.3138673      0.083993045    4612.2102    
    274000   0.62791554    -6.3302971     -5.3886592      0.038307859    4582.9623    
    275000   0.60848135    -6.3002549     -5.3877611     -0.079290266    4608.2282    
    276000   0.61447991    -6.2878172     -5.3663278      0.053044255    4597.4445    
    277000   0.62145121    -6.3286791     -5.3967354     -0.059214877    4592.6798    
    278000   0.61551111    -6.3199729     -5.3969371     -0.10851713     4599.3284    
    279000   0.59549664    -6.3370645     -5.4440429     -0.0042846829   4581.0044    
    280000   0.62865209    -6.3023262     -5.3595838     -0.080086862    4610.2431    
    281000   0.61617728    -6.3492888     -5.425254      -0.053564062    4579.2691    
    282000   0.60299053    -6.3279543     -5.4236947      0.050164344    4579.7959    
    283000   0.62833846    -6.3244517     -5.3821797     -0.029665084    4588.8956    
    284000   0.61484646    -6.3207347     -5.3986956      0.15585971     4568.2728    
    285000   0.60370797    -6.3079449     -5.4026094     -0.094181897    4604.4767    
    286000   0.61741318    -6.3142946     -5.3884063      0.053367793    4588.1313    
    287000   0.61677723    -6.3477838     -5.4228493      0.075905908    4565.4866    
    288000   0.59187271    -6.3408172     -5.4532301     -0.010537653    4576.3578    
    289000   0.59938272    -6.323791      -5.4249417     -0.035003545    4587.3779    
    290000   0.60486826    -6.3838538     -5.4767782     -0.030442064    4555.5235    
    291000   0.6104241     -6.382045      -5.4666377      0.094985665    4544.1565    
    292000   0.61368445    -6.3589615     -5.4386649      0.039501128    4563.4447    
    293000   0.6074904     -6.3374099     -5.4264021     -0.025584806    4583.7934    
    294000   0.59250687    -6.3627151     -5.4741769      0.095156843    4553.0119    
    295000   0.60345577    -6.3608606     -5.4559033      0.056369902    4560.7987    
    296000   0.59693993    -6.3904572     -5.4952712      0.01943596     4547.2267    
    297000   0.59814807    -6.3850434     -5.4880456      0.12296227     4541.2235    
    298000   0.61366595    -6.3887678     -5.468499       0.076117355    4545.9329    
    299000   0.59532337    -6.3627831     -5.4700213      0.077308151    4557.9765    
    300000   0.60316665    -6.3717949     -5.4672711      0.15948598     4542.1705    
    301000   0.59919619    -6.396949      -5.4983794      0.00099963897  4544.6332    
    302000   0.59979431    -6.3808396     -5.481373      -0.10759573     4566.6956    
    303000   0.60019384    -6.4210837     -5.521018       0.058934726    4528.1097    
    304000   0.60463112    -6.4204256     -5.5137056      0.12392237     4520.9202    
    305000   0.59296312    -6.4123723     -5.52315        0.060964329    4528.8009    
    306000   0.58099985    -6.4224215     -5.5511396     -0.055328621    4538.0582    
    307000   0.60276484    -6.4081182     -5.5041969     -0.060934465    4546.9325    
    308000   0.59068546    -6.3906809     -5.5048742     -0.052203748    4556.0687    
    309000   0.5877407     -6.4263164     -5.5449257     -0.029637953    4531.7147    
    310000   0.58411775    -6.4022388     -5.5262812      0.0069693367   4543.8886    
    311000   0.58576642    -6.4294331     -5.5510032     -0.060608907    4533.6869    
    312000   0.57488991    -6.4187974     -5.5566781     -0.094766182    4541.8127    
    313000   0.59487803    -6.3980108     -5.5059168      0.051485191    4537.0194    
    314000   0.58641514    -6.4260607     -5.5466579     -0.06775648     4535.4745    
    315000   0.5766967     -6.438251      -5.5734222     -0.03046629     4526.7606    
    316000   0.58422044    -6.469934      -5.5938224     -0.079568141    4514.583     
    317000   0.58801143    -6.4305362     -5.5487395      0.065861444    4520.1591    
    318000   0.60406831    -6.4643963     -5.5585203      0.2023821      4490.6854    
    319000   0.5958406     -6.4910249     -5.5974875      0.069812656    4488.5111    
    320000   0.57589553    -6.4427504     -5.579123      -0.05742133     4525.092     
    321000   0.58564427    -6.4789816     -5.6007348      0.066377492    4493.2179    
    322000   0.58230729    -6.4631679     -5.5899253     -0.0083951887   4508.1797    
    323000   0.58090569    -6.4690498     -5.5979091     -0.012759776    4509.7554    
    324000   0.58197449    -6.4278357     -5.5550922      0.14291987     4514.4019    
    325000   0.57990725    -6.461617      -5.5919736      0.11007091     4499.1365    
    326000   0.57932567    -6.4620257     -5.5932544      0.066829031    4501.2714    
    327000   0.57943789    -6.4700374     -5.6010979     -0.080807069    4515.2483    
    328000   0.56363734    -6.4928684     -5.6476237      0.0041739726   4491.7133    
    329000   0.56716       -6.4878058     -5.6372785      0.13406452     4483.9419    
    330000   0.57882135    -6.4745327     -5.6065177      0.019756727    4501.1817    
    331000   0.56319341    -6.4878866     -5.6433077      0.0056063149   4493.6843    
    332000   0.57075021    -6.5054906     -5.6495793      0.013835061    4484.4041    
    333000   0.58432858    -6.4507143     -5.5744405      0.063809791    4512.1665    
    334000   0.58076703    -6.5093745     -5.6384418      0.050132869    4481.707     
    335000   0.55596816    -6.4926581     -5.6589143     -0.14596291     4507.3163    
    336000   0.56924397    -6.4980236     -5.6443711     -0.13073091     4503.1328    
    337000   0.56145872    -6.4824128     -5.6404352      0.02369564     4497.0889    
    338000   0.56631284    -6.5236774     -5.6744206     -0.091618293    4487.5744    
    339000   0.55366942    -6.5158115     -5.685515       0.051959989    4473.0841    
    340000   0.57694218    -6.5210137     -5.6558168      0.023993673    4476.0874    
    341000   0.57739343    -6.4909835     -5.6251099     -0.079601577    4502.3266    
    342000   0.5625501     -6.5222637     -5.6786495     -0.12420864     4489.15      
    343000   0.56260298    -6.4987995     -5.655106       0.059953822    4484.2827    
    344000   0.56366761    -6.5408647     -5.6955747      0.064284001    4463.2473    
    345000   0.54713006    -6.5360048     -5.7155149     -0.078321978    4475.7796    
    346000   0.54965115    -6.5095462     -5.6852756     -0.10540501     4493.8696    
    347000   0.55410768    -6.5459522     -5.7149985     -0.074262199    4471.4289    
    348000   0.54083472    -6.5095171     -5.6984678     -0.023295282    4483.4303    
    349000   0.56348328    -6.5400509     -5.6950373     -0.11028631     4480.1209    
    350000   0.54768334    -6.5477184     -5.7263988     -0.089444911    4470.8583    
    351000   0.5461865     -6.5309671     -5.7118922      0.13183846     4456.3544    
    352000   0.55580417    -6.5414161     -5.7079182     -0.053560176    4470.1915    
    353000   0.54872918    -6.5584177     -5.7355297      0.038706816    4454.2809    
    354000   0.55711479    -6.5570249     -5.7215616      0.061524412    4454.4332    
    355000   0.56362366    -6.5459148     -5.7006907     -0.10203037     4475.9793    
    356000   0.5579023     -6.5799037     -5.7432594      0.087512196    4438.3878    
    357000   0.54650812    -6.5607198     -5.7411625     -0.017771365    4456.7551    
    358000   0.54140517    -6.538727      -5.7268223      0.047084033    4463.2528    
    359000   0.53674396    -6.6103602     -5.8054456      0.012437901    4428.9799    
    360000   0.55654826    -6.5889157     -5.754302      -0.021300234    4445.3331    
    361000   0.54319726    -6.5910422     -5.77645        0.098191302    4434.3677    
    362000   0.54186862    -6.5823832     -5.7697835     -0.04860404     4448.7705    
    363000   0.54241973    -6.617608      -5.8041818      0.027314962    4425.7678    
    364000   0.54779826    -6.5880062     -5.7665142     -0.0083596452   4442.7166    
    365000   0.54099897    -6.5930676     -5.781772       0.018651672    4438.0444    
    366000   0.54632475    -6.5858797     -5.7665974     -0.01903092     4444.3164    
    367000   0.53657484    -6.5962277     -5.7915667     -0.072540701    4446.1141    
    368000   0.53750177    -6.6076722     -5.8016212     -0.021405125    4434.036     
    369000   0.53166327    -6.6052875     -5.8079919      0.055577414    4425.0001    
    370000   0.52647528    -6.6279408     -5.8384253     -0.070636892    4427.7835    
    371000   0.54409539    -6.6027742     -5.7868352     -0.011011858    4434.5615    
    372000   0.54030446    -6.6155166     -5.8052626     -0.11804179     4438.1557    
    373000   0.54115237    -6.592509      -5.7809834      0.027146191    4438.3627    
    374000   0.54043652    -6.6345396     -5.8240875     -0.088895039    4428.14      
    375000   0.52959494    -6.6051228     -5.810929       0.067671719    4425.6769    
    376000   0.54182505    -6.6310646     -5.8185302     -0.14158218     4431.8167    
    377000   0.53559257    -6.6215239     -5.8183358      0.087706077    4416.3211    
    378000   0.529291      -6.6395367     -5.8457987      0.022876783    4412.3084    
    379000   0.53546421    -6.6596231     -5.8566276      0.064575429    4400.8284    
    380000   0.54350374    -6.6209773     -5.8059255     -0.06664911     4434.283     
    381000   0.52243163    -6.6195944     -5.8361429     -0.0054717068   4426.0721    
    382000   0.5344228     -6.6408423     -5.8394086      0.096977696    4407.6027    
    383000   0.51631011    -6.6386511     -5.8643796      0.050236105    4410.0855    
    384000   0.52736802    -6.6570063     -5.8661521      0.014866324    4405.3729    
    385000   0.52694083    -6.6483376     -5.858124       0.087108277    4402.3228    
    386000   0.52678182    -6.6395184     -5.8495432      0.11037348     4404.9906    
    387000   0.5286535     -6.679534      -5.886752      -0.027638756    4398.4444    
    388000   0.51509188    -6.6681328     -5.8956881     -0.096622763    4407.9903    
    389000   0.52323298    -6.6417502     -5.857097      -0.05716291     4419.8889    
    390000   0.52382524    -6.6629404     -5.877399       0.1178873      4392.2427    
    391000   0.52297122    -6.6795672     -5.8953065     -0.095633709    4403.9313    
    392000   0.50929578    -6.6924586     -5.9287059     -0.048390402    4392.1485    
    393000   0.51939096    -6.6791762     -5.9002846     -0.043065329    4399.3496    
    394000   0.52550725    -6.6849388     -5.896875      -0.093574892    4400.6832    
    395000   0.52913827    -6.6740724     -5.8805635     -0.019629456    4401.6089    
    396000   0.51628822    -6.6738842     -5.8996455      0.001161937    4398.5575    
    397000   0.5101982     -6.6762355     -5.9111295     -0.064099436    4400.1206    
    398000   0.50647846    -6.696558      -5.9370302      0.073960365    4380.1372    
    399000   0.52837213    -6.7057193     -5.9133593      0.055460366    4377.8286    
    400000   0.5208049     -6.721156      -5.9401439      0.16963239     4359.2115    
    401000   0.50587659    -6.6991629     -5.9405377      0.030187789    4381.2324    
    402000   0.51030843    -6.6852983     -5.9200271      0.025623871    4390.3077    
    403000   0.51188984    -6.7077112     -5.9400684      0.053081499    4376.4488    
    404000   0.50593174    -6.7202149     -5.961507      -0.046905289    4378.626     
    405000   0.51594433    -6.716724      -5.943001       0.14645304     4363.7133    
    406000   0.49960181    -6.7293444     -5.9801291     -0.070817974    4376.015     
    407000   0.51750286    -6.7176279     -5.9415677     -0.013304861    4376.8121    
    408000   0.50567393    -6.7053807     -5.9470594     -0.0052525385   4381.6599    
    409000   0.51330329    -6.7292245     -5.959462       0.063951644    4365.8947    
    410000   0.50840181    -6.73748       -5.9750679     -0.08143203     4372.1015    
    411000   0.49695798    -6.7481279     -6.0028773      0.091326846    4353.5271    
    412000   0.51366771    -6.752839      -5.9825301     -0.14296025     4372.2149    
    413000   0.50361477    -6.7406929     -5.9854596      0.075045387    4357.2817    
    414000   0.50384177    -6.7352044     -5.9796307     -0.099207262    4375.0584    
    415000   0.49256786    -6.7510339     -6.0123668     -0.10132083     4366.1732    
    416000   0.51285092    -6.7316888     -5.9626047      0.013232422    4368.153     
    417000   0.49868047    -6.7412157     -5.993382      -0.005532665    4361.1045    
    418000   0.50170473    -6.7646738     -6.0123049      0.10036629     4345.3561    
    419000   0.49272916    -6.7483818     -6.0094728     -0.0091634892   4361.0806    
    420000   0.50497648    -6.7532295     -5.9959541     -0.030473216    4362.4254    
    421000   0.51065088    -6.7777285     -6.0119437      0.068549265    4341.9463    
    422000   0.50295559    -6.7609452     -6.0067004     -0.071672689    4361.9737    
    423000   0.49883567    -6.7469588     -5.9988923      0.085802559    4350.6358    
    424000   0.48937742    -6.7877979     -6.0539153      0.082998791    4334.3799    
    425000   0.49168836    -6.7964316     -6.0590834      0.015716908    4336.855     
    426000   0.50018599    -6.770749      -6.0206576     -0.028865321    4351.6706    
    427000   0.503674      -6.788712      -6.0333898     -0.037108564    4343.2809    
    428000   0.49349875    -6.7622349     -6.0221718     -0.039204071    4357.346     
    429000   0.48698969    -6.7955219     -6.0652199     -0.014582011    4339.7533    
    430000   0.48837293    -6.7702817     -6.0379054     -0.1255735      4359.0241    
    431000   0.48409425    -6.7925403     -6.0665804     -0.0035299213   4337.5086    
    432000   0.49010843    -6.8121164     -6.0771376     -0.016428487    4332.4973    
    433000   0.48011398    -6.8193476     -6.0993566     -0.0074377437   4328.109     
    434000   0.48045809    -6.8065075     -6.0860006      0.0089271745   4330.4075    
    435000   0.47991146    -6.8061698     -6.0864826      0.032908857    4327.6945    
    436000   0.49381441    -6.7876013     -6.0470649     -0.021325177    4344.27      
    437000   0.47923854    -6.807589      -6.0889109      0.089468061    4322.8778    
    438000   0.47693127    -6.8295832     -6.1143651      0.068381842    4314.5316    
    439000   0.48152457    -6.8175615     -6.0954552     -0.099469559    4334.1893    
    440000   0.48084509    -6.8256992     -6.1046119      0.040545694    4320.6383    
    441000   0.47938193    -6.7997883     -6.0808951     -0.014342642    4335.826     
    442000   0.47832566    -6.8314889     -6.1141797     -0.021343942    4322.6774    
    443000   0.470166      -6.8629166     -6.157844       0.020714011    4304.5106    
    444000   0.48649966    -6.8285495     -6.0989824      0.030235536    4317.7567    
    445000   0.48366002    -6.8255596     -6.1002509      0.049219027    4319.8416    
    446000   0.47649268    -6.8387899     -6.1242295      0.077500029    4309.8889    
    447000   0.47515178    -6.8614684     -6.1489189     -0.029515494    4307.8405    
    448000   0.4680271     -6.8423674     -6.1405022     -0.023938747    4315.9571    
    449000   0.47406018    -6.8309357     -6.1200232     -0.024886692    4321.9153    
    450000   0.47709443    -6.8410373     -6.1255746     -0.1581861      4330.0147    
    451000   0.47291457    -6.8532584     -6.1440638     -0.049427633    4312.3098    
    452000   0.47499628    -6.850795      -6.1384787     -0.069944368    4316.191     
    453000   0.47010558    -6.8661144     -6.1611324      0.1090519      4295.0716    
    454000   0.48145836    -6.8649499     -6.1429429      0.11963626     4294.1288    
    455000   0.46707639    -6.8588779     -6.1584384     -0.082983162    4312.8296    
    456000   0.46946536    -6.8808945     -6.1768725      0.075640814    4292.2423    
    457000   0.4723827     -6.8690986     -6.1607017     -0.09382191     4309.2132    
    458000   0.47434758    -6.8632672     -6.1519237     -0.0074118449   4304.4418    
    459000   0.46330395    -6.886106      -6.1913238      0.022482017    4291.7776    
    460000   0.46569138    -6.8764574     -6.178095       0.095666027    4291.6573    
    461000   0.47372526    -6.8869604     -6.1765502      0.084864122    4286.5846    
    462000   0.45790264    -6.8792398     -6.1925576      0.020685185    4294.1677    
    463000   0.46915975    -6.884291      -6.1807273      0.071988304    4289.9672    
    464000   0.45940941    -6.8908952     -6.2019534      0.051425768    4286.078     
    465000   0.46124025    -6.9013469     -6.2096595     -0.0076878685   4286.7581    
    466000   0.46396995    -6.9095322     -6.2137513     -0.038972243    4285.6449    
    467000   0.4584247     -6.9169138     -6.2294487      0.16045883     4265.7197    
    468000   0.46674174    -6.9251832     -6.2252456     -0.054662451    4280.9913    
    469000   0.46900403    -6.9042748     -6.2009446      0.021920223    4283.4002    
    470000   0.44427403    -6.9190531     -6.2528087      0.0085818506   4278.089     
    471000   0.45689295    -6.9292962     -6.2441282      0.05123837     4270.5861    
    472000   0.4589078     -6.9189653     -6.2307757      0.040702017    4275.096     
    473000   0.46025455    -6.9014255     -6.2112163     -0.010753279    4286.3648    
    474000   0.44968153    -6.9354941     -6.2611404     -0.0025582771   4270.0166    
    475000   0.45317899    -6.9287608     -6.2491622      0.06554066     4267.4367    
    476000   0.44424085    -6.9387988     -6.2726041     -0.069665626    4273.3467    
    477000   0.44852465    -6.9303374     -6.2577186      0.021519192    4270.9059    
    478000   0.44823523    -6.9476727     -6.2754879      0.063466896    4258.4597    
    479000   0.45604773    -6.9395131     -6.2556126     -0.031772617    4272.4642    
    480000   0.44960972    -6.9672981     -6.2930522      0.026413161    4254.5941    
    481000   0.44242323    -6.955165      -6.291696       0.035783868    4259.2842    
    482000   0.45275841    -6.9502827     -6.2713149     -0.0030844773   4262.5801    
    483000   0.43842935    -6.9703073     -6.3128277      0.10520587     4245.6698    
    484000   0.44539748    -6.9749733     -6.3070441      0.0032401106   4252.6614    
    485000   0.44200897    -6.9737929     -6.3109452      0.030920034    4248.4719    
    486000   0.43289956    -6.9893255     -6.3401385     -0.012565432    4246.1805    
    487000   0.4362146     -6.9785923     -6.324434       0.034012509    4246.5399    
    488000   0.4457756     -6.9789492     -6.310453      -0.019527249    4252.6118    
    489000   0.44153576    -6.9984608     -6.3363228     -0.10524928     4249.9539    
    490000   0.44121527    -7.0126193     -6.3509619     -0.11386426     4244.4927    
    491000   0.43899317    -7.0406413     -6.3823161     -0.0012333713   4224.3529    
    492000   0.44105474    -7.1023288     -6.4409121     -0.017120703    4198.8576    
    493000   0.44063416    -7.0941549     -6.4333689      0.010486313    4199.697     
    494000   0.43811531    -7.067098      -6.4100893     -0.044281063    4215.4102    
    495000   0.43406824    -7.1016144     -6.4506748      0.015531996    4195.7756    
    496000   0.4356177     -7.1449798     -6.4917166      0.031795122    4176.7059    
    497000   0.44035371    -7.1486485     -6.4882831     -0.0012378913   4178.9394    
    498000   0.43600413    -7.1754407     -6.521598      -0.030958995    4170.6353    
    499000   0.4331672     -7.1966526     -6.5470643      0.0088529407   4156.9058    
    500000   0.42997229    -7.2284458     -6.5836486      0.02769983     4144.7305    
    501000   0.42867228    -7.2435095     -6.6006618     -0.050118413    4143.6463    
    502000   0.43004569    -7.2992159     -6.6543086     -0.081386317    4124.0415    
    503000   0.42205885    -7.3292907     -6.6963607      0.13735307     4095.9584    
    504000   0.4211739     -7.3218526     -6.6902497     -0.019651906    4110.7853    
    505000   0.42361074    -7.3678805     -6.7326233      0.028619754    4088.7274    
    506000   0.4245351     -7.3717042     -6.7350608      0.0089305026   4087.7042    
    507000   0.42331791    -7.3722079     -6.7373897     -0.17745168     4101.0496    
    508000   0.4218066     -7.4139468     -6.7813951      0.030345031    4072.023     
    509000   0.42727708    -7.43814       -6.7973846      0.066112357    4060.0349    
    510000   0.42530773    -7.4637149     -6.8259128      0.010644453    4054.9604    
    511000   0.41891588    -7.4805887     -6.852372      -0.015980779    4049.2209    
    512000   0.43022716    -7.5130501     -6.8678707      0.0030711669   4034.6086    
    513000   0.42550705    -7.5155623     -6.8774613     -0.11595089     4041.6503    
    514000   0.41393271    -7.5245608     -6.9038169     -0.07704636     4034.5388    
    515000   0.4101639     -7.5381412     -6.9230491      0.15209496     4013.7505    
    516000   0.41850606    -7.5459714     -6.9183692      0.036825281    4018.4017    
    517000   0.41787792    -7.5263401     -6.8996799     -0.072516624    4033.1313    
    518000   0.41123964    -7.5363641     -6.9196588     -0.040152606    4026.9245    
    519000   0.40865088    -7.5420361     -6.929213       0.092326971    4015.2315    
    520000   0.41469048    -7.5429579     -6.9210776      0.013457195    4020.6891    
    521000   0.41419768    -7.5275571     -6.9064159      0.076928612    4021.1944    
    522000   0.40994105    -7.5581998     -6.943442      -0.082035569    4021.5       
    523000   0.4070934     -7.5503912     -6.9399038     -0.033422692    4020.658     
    524000   0.406468      -7.5593922     -6.9498426      0.064478432    4009.9103    
    525000   0.40130071    -7.5575        -6.9556994     -0.038670465    4017.4494    
    526000   0.41581309    -7.5634623     -6.9398986     -0.024467916    4015.4225    
    527000   0.41059394    -7.582765      -6.967028       0.1480944      3995.9797    
    528000   0.40676411    -7.596452      -6.9864584     -0.096952362    4006.9044    
    529000   0.40995953    -7.6118198     -6.9970343     -0.073873549    4000.9486    
    530000   0.40200936    -7.6254234     -7.0225601     -0.0475405      3993.0537    
    531000   0.40141973    -7.6212142     -7.0192351      0.0048874959   3990.6542    
    532000   0.39813639    -7.5988909     -7.0018356     -0.24855718     4015.2512    
    533000   0.41288386    -7.6317643     -7.0125934     -0.085776563    3992.3763    
    534000   0.40239656    -7.6475623     -7.0441184     -0.053642978    3985.4571    
    535000   0.40830411    -7.6431219     -7.0308189      0.013795014    3983.3093    
    536000   0.40234718    -7.6456658     -7.0422959     -0.050047902    3985.7023    
    537000   0.40795235    -7.6527267     -7.0409511      0.085177754    3974.6995    
    538000   0.39826243    -7.6575702     -7.0603259     -0.020913669    3979.6013    
    539000   0.39500843    -7.6641166     -7.0717521     -0.070464375    3981.1917    
    540000   0.40166692    -7.6673716     -7.0650219      0.012483292    3974.1292    
    541000   0.38684927    -7.6757077     -7.0955788      0.086693225    3965.1573    
    542000   0.39121845    -7.6914469     -7.1047659     -0.10397467     3972.4692    
    543000   0.39251463    -7.6846977     -7.096073       0.10587299     3961.8629    
    544000   0.39705944    -7.6836012     -7.088161      -0.0077474228   3968.641     
    545000   0.40067476    -7.695855      -7.0949931     -0.1565915      3974.9007    
    546000   0.39433347    -7.6975363     -7.1061839     -0.02808811     3965.3436    
    547000   0.3840551     -7.6972564     -7.1213178      0.047341705    3960.2207    
    548000   0.39028417    -7.7180263     -7.1327464     -0.054394127    3959.2433    
    549000   0.38436254    -7.7227481     -7.1463484     -0.018790169    3955.8119    
    550000   0.38514809    -7.7078897     -7.130312      -0.0063962283   3959.8997    
    551000   0.39066274    -7.71042       -7.1245724      0.17474931     3948.04      
    552000   0.37803715    -7.7104139     -7.1434999     -0.088218881    3964.0673    
    553000   0.38276536    -7.7239228     -7.1499183     -0.083129071    3959.7354    
    554000   0.38728914    -7.7175956     -7.1368071      0.051178333    3953.6767    
    555000   0.38792529    -7.7093443     -7.1276019     -0.082674554    3964.2385    
    556000   0.38427396    -7.7170195     -7.1407526     -0.10157907     3962.8747    
    557000   0.3800954     -7.7246643     -7.1546637     -0.031909443    3954.9966    
    558000   0.38559275    -7.7202857     -7.1420412     -0.087610637    3960.4906    
    559000   0.38626951    -7.7269271     -7.1476676      0.092875063    3947.0861    
    560000   0.3768403     -7.7412139     -7.1760948      0.0239024      3944.7999    
    561000   0.38533482    -7.7457669     -7.1679091      0.093234443    3940.5655    
    562000   0.38139425    -7.7263952     -7.1544469     -0.077371784    3957.7344    
    563000   0.37920659    -7.7419826     -7.173315       0.037859314    3945.0252    
    564000   0.37986963    -7.7401689     -7.1705069      0.033608931    3945.0131    
    565000   0.37486049    -7.7208708     -7.1587207     -0.12887101     3963.2677    
    566000   0.37580944    -7.7248967     -7.1613235      0.087230128    3947.684     
    567000   0.37902323    -7.7483628     -7.1799701      0.11370621     3937.8442    
    568000   0.37828709    -7.73601       -7.1687212      0.040304807    3946.8564    
    569000   0.36969134    -7.7473863     -7.1929879     -0.016980506    3945.9004    
    570000   0.37258928    -7.7399673     -7.1812231     -0.0042002905   3948.3011    
    571000   0.36874494    -7.7657083     -7.2127291      0.012265403    3938.0258    
    572000   0.36309528    -7.749465      -7.2049582     -0.14656674     3952.4654    
    573000   0.36825484    -7.7450789     -7.1928347     -0.050060248    3948.9735    
    574000   0.36492577    -7.7625889     -7.2153371      0.047976311    3935.8896    
    575000   0.37379536    -7.7624326     -7.2018798      0.071086801    3935.4151    
    576000   0.37289248    -7.7520064     -7.1928075     -0.0055044757   3943.5624    
    577000   0.3646933     -7.7539632     -7.20706       -0.035299887    3943.6454    
    578000   0.36730379    -7.7735278     -7.2227098      0.15264073     3925.001     
    579000   0.36022779    -7.7548138     -7.2146072      0.041037056    3938.6118    
    580000   0.35979113    -7.7660141     -7.2264624      0.031936434    3937.0374    
    581000   0.36022216    -7.7725103     -7.2323122      0.066853595    3932.1243    
    582000   0.36090283    -7.7546858     -7.2134669     -0.031748851    3943.8996    
    583000   0.36856063    -7.7628539     -7.2101511     -0.011366185    3940.2239    
    584000   0.36478504    -7.7680425     -7.2210018      0.13037173     3928.8449    
    585000   0.35594003    -7.7664976     -7.232721      -0.093388902    3943.8618    
    586000   0.35892403    -7.7802242     -7.2419728     -0.037442511    3935.4166    
    587000   0.35734353    -7.7652731     -7.2293918     -0.096597374    3943.7002    
    588000   0.36138032    -7.7883665     -7.2464316     -0.01090295     3931.3737    
    589000   0.3480296     -7.783135      -7.2612211      0.16581698     3920.5217    
    590000   0.35648061    -7.7884104     -7.2538231     -0.029332345    3931.7113    
    591000   0.35911583    -7.7812289     -7.2426898     -0.074019892    3936.1956    
    592000   0.35662991    -7.7916336     -7.2568224      0.12470412     3920.2335    
    593000   0.35343744    -7.7981495     -7.2681259      0.045551505    3923.245     
    594000   0.34653521    -7.7991642     -7.2794913     -0.008462549    3925.5761    
    595000   0.34927622    -7.7986278     -7.2748444     -0.032651265    3927.0995    
    596000   0.35106863    -7.8053937     -7.2789224      0.029658032    3920.8075    
    597000   0.34333651    -7.8123292     -7.2974531     -0.021713965    3921.7957    
    598000   0.34628115    -7.8119386     -7.2926467     -0.053034874    3923.3087    
    599000   0.34905506    -7.8130194     -7.2895677      0.15593715     3910.3149    
    600000   0.35648932    -7.804232      -7.2696317     -0.014754243    3924.4582    
    601000   0.3437727     -7.8187338     -7.3032037      0.077618658    3912.8922    
    602000   0.34357702    -7.8189831     -7.3037464      0.096233793    3912.2836    
    603000   0.35101105    -7.8085225     -7.2821376     -0.085749248    3926.8589    
    604000   0.34771628    -7.8108203     -7.2893762      0.1176839      3913.2712    
    605000   0.33834579    -7.8183068     -7.310915      -0.0066785584   3917.0059    
    606000   0.34272262    -7.8144165     -7.3004611     -0.091541687    3925.0436    
    607000   0.33955286    -7.8256586     -7.3164566     -0.11145193     3921.8037    
    608000   0.33621979    -7.8233364     -7.3191328     -0.050447055    3919.431     
    609000   0.33529938    -7.8120222     -7.3091989     -0.0039497272   3919.7936    
    610000   0.34678393    -7.833191      -7.3131451     -0.044276725    3915.5612    
    611000   0.33251188    -7.8269897     -7.3283466     -0.00014833129  3914.5033    
    612000   0.3359275     -7.8340381     -7.3302728     -0.016795073    3913.2363    
    613000   0.33663446    -7.8261817     -7.3213563     -0.025972509    3916.2763    
    614000   0.34286532    -7.8238793     -7.3097099     -0.0024521376   3915.1056    
    615000   0.33148161    -7.8389709     -7.3418728     -0.075477747    3914.3691    
    616000   0.32586076    -7.833583      -7.344914       0.00074787333  3911.1953    
    617000   0.33169724    -7.822691      -7.3252696     -0.045228447    3918.0869    
    618000   0.3384492     -7.83483       -7.3272831      0.026678945    3910.4958    
    619000   0.32625806    -7.833398      -7.3441333      0.023180619    3910.1331    
    620000   0.32213364    -7.8440118     -7.3609322     -0.023250105    3908.4774    
    621000   0.32890144    -7.8516143     -7.3583855     -0.058706085    3908.9064    
    622000   0.33254015    -7.8527341     -7.3540486     -0.12474474     3913.5108    
    623000   0.32981251    -7.8363282     -7.3417331     -0.024509452    3912.4345    
    624000   0.32800637    -7.8422589     -7.3503724     -0.055083848    3911.8795    
    625000   0.32373739    -7.851714      -7.3662293     -0.024372788    3906.924     
    626000   0.32362497    -7.8564838     -7.3711677      0.02219131     3902.3214    
    627000   0.32299607    -7.8530262     -7.3686532     -0.081247152    3908.7122    
    628000   0.3221786     -7.8486571     -7.3655101     -0.11744732     3912.9276    
    629000   0.32297757    -7.8611767     -7.3768315     -0.050107253    3904.2999    
    630000   0.31795119    -7.8685137     -7.3917062     -0.080779628    3903.951     
    631000   0.32045359    -7.877795      -7.3972348     -0.10357888     3901.7488    
    632000   0.31445761    -7.8751752     -7.4036067      0.016003519    3895.0721    
    633000   0.31939012    -7.8694444     -7.390479      -0.10032764     3904.2755    
    634000   0.31171227    -7.8710145     -7.403563      -0.094906975    3902.684     
    635000   0.3130864     -7.8783178     -7.4088056     -0.045992108    3897.8963    
    636000   0.32000418    -7.8724237     -7.3925375     -0.0064895926   3897.8174    
    637000   0.31563947    -7.8643589     -7.3910181      0.04067599     3897.3937    
    638000   0.31462512    -7.8798532     -7.4080335      0.039185055    3892.3282    
    639000   0.3112558     -7.8906135     -7.4238465     -0.096776395    3896.85      
    640000   0.3123998     -7.8889506     -7.420468      -0.15169876     3900.2926    
    641000   0.30285571    -7.8716361     -7.4174661      0.055189775    3893.3632    
    642000   0.31105515    -7.8891143     -7.4226482     -0.079053498    3895.8695    
    643000   0.30691123    -7.9006802     -7.4404285      0.013446824    3886.743     
    644000   0.3089211     -7.8966674     -7.4334016     -0.024230039    3890.4729    
    645000   0.31301949    -7.8920032     -7.4225913     -0.0078033568   3890.1861    
    646000   0.30749535    -7.8898758     -7.4287481      0.013714225    3889.3817    
    647000   0.3063663     -7.9041986     -7.444764      -0.053674884    3889.0341    
    648000   0.31144562    -7.9044955     -7.4374439      0.061081504    3882.9463    
    649000   0.30826326    -7.8845976     -7.4223183     -0.017676339    3893.8461    
    650000   0.30272951    -7.8964332     -7.4424524     -0.032141074    3890.2578    
    651000   0.30084511    -7.9024898     -7.4513349     -0.089541291    3891.6509    
    652000   0.30446179    -7.9070859     -7.4505074     -0.08681968     3889.9237    
    653000   0.30469393    -7.8957039     -7.4387773      0.034708791    3885.9863    
    654000   0.30777337    -7.9042846     -7.4427399      0.012760122    3885.1988    
    655000   0.30581365    -7.9070372     -7.4484314     -0.040093444    3887.7772    
    656000   0.30042119    -7.9081424     -7.4576232      0.031252763    3882.6779    
    657000   0.29744882    -7.9140209     -7.4679592      0.093202324    3876.561     
    658000   0.29235495    -7.9048212     -7.4663984      0.025211845    3883.3837    
    659000   0.30054809    -7.916562      -7.4658526      0.099708199    3875.9199    
    660000   0.29084022    -7.9190239     -7.4828726      0.039993817    3877.5891    
    661000   0.28637038    -7.9137971     -7.484349      -0.045612326    3884.3602    
    662000   0.29206178    -7.9123987     -7.4744156     -0.092886703    3887.6792    
    663000   0.29631595    -7.9131088     -7.468746       0.066401278    3878.9595    
    664000   0.29240261    -7.919114      -7.4806198      0.011158386    3879.4284    
    665000   0.29225105    -7.933092      -7.494825       0.049980899    3872.8733    
    666000   0.28387573    -7.9146062     -7.4888991     -0.017182647    3882.2436    
    667000   0.29233621    -7.917271      -7.4788763      0.053921969    3877.6298    
    668000   0.29923974    -7.9321969     -7.4834495      0.02529569     3875.5057    
    669000   0.28924711    -7.9306764     -7.4969142      0.081081551    3871.5618    
    670000   0.28535403    -7.93064       -7.502716       0.044957106    3872.7792    
    671000   0.29530508    -7.9385203     -7.4956734      0.07846175     3870.1953    
    672000   0.28958692    -7.9226658     -7.488394      -0.064924627    3883.0999    
    673000   0.28845968    -7.931995      -7.4994136      0.009368744    3875.3496    
    674000   0.28239102    -7.9302915     -7.5068109     -0.0027189316   3876.0049    
    675000   0.28105823    -7.9415448     -7.5200629     -0.091495082    3878.2406    
    676000   0.27697284    -7.940408      -7.5250526      0.11636524     3865.5174    
    677000   0.27778138    -7.9444488     -7.5278809      0.043747364    3868.3002    
    678000   0.28044773    -7.9501686     -7.5296021     -0.053825467    3872.6538    
    679000   0.2856074     -7.9491636     -7.5208596     -0.006121185    3869.9912    
    680000   0.27873664    -7.9410054     -7.5230049      0.0020064511   3872.3826    
    681000   0.27393878    -7.9408786     -7.5300731     -0.053052933    3874.8339    
    682000   0.27978363    -7.9583685     -7.538798      -0.018111458    3866.7451    
    683000   0.27818048    -7.9564835     -7.5393171      0.028776584    3865.6833    
    684000   0.27797124    -7.9436437     -7.5267911      0.062782724    3867.2829    
    685000   0.2810651     -7.9493209     -7.5278286      0.087648872    3864.2724    
    686000   0.27373165    -7.9542413     -7.5437465     -0.041095227    3869.7804    
    687000   0.26723772    -7.9576127     -7.5568564      0.031876942    3864.1038    
    688000   0.27068362    -7.9581565     -7.5522326     -0.08870656     3871.1001    
    689000   0.27409483    -7.9506896     -7.5396501      0.045276375    3865.5634    
    690000   0.27382906    -7.9605158     -7.5498749      0.040018111    3862.5587    
    691000   0.26619101    -7.9602522     -7.5610655      0.066835521    3861.069     
    692000   0.27093694    -7.9568334     -7.5505295     -0.062288025    3870.1564    
    693000   0.26993296    -7.9622615     -7.5574633     -0.093328203    3870.1993    
    694000   0.2677773     -7.9702645     -7.568699       0.020736984    3860.1735    
    695000   0.2717132     -7.9678353     -7.5603674     -0.01966861     3863.8758    
    696000   0.27062143    -7.9640576     -7.5582269      0.036597836    3861.9258    
    697000   0.26173663    -7.9661829     -7.5736761     -0.054155426    3866.1098    
    698000   0.26595136    -7.9793363     -7.580509       0.11458618     3852.2044    
    699000   0.25780295    -7.9745458     -7.587938       0.046173469    3857.7103    
    700000   0.25766305    -7.9777287     -7.5913307      0.0062521842   3858.8834    
    701000   0.25691768    -7.9775142     -7.5922341     -0.050380549    3861.9394    
    702000   0.26059381    -7.9813695     -7.5905765      0.14197522     3849.5868    
    703000   0.26253504    -7.98192       -7.5882159      0.028012686    3855.6555    
    704000   0.25884517    -7.977177      -7.5890063     -0.13467348     3866.3933    
    705000   0.25963544    -7.9823488     -7.592993       0.020656864    3856.0832    
    706000   0.25267847    -7.9885076     -7.6095846     -0.073810006    3859.427     
    707000   0.24939238    -7.9895305     -7.6155355      0.0051215596   3854.206     
    708000   0.2597608     -7.9948007     -7.6052569     -0.018004651    3854.0373    
    709000   0.25889739    -7.9936231     -7.6053741     -0.11953555     3861.0776    
    710000   0.25409886    -7.993428      -7.612375       0.10292132     3847.5192    
    711000   0.24595134    -7.9982504     -7.6294156      0.035489859    3849.0884    
    712000   0.25099326    -7.9911422     -7.6147464     -0.037719599    3856.0901    
    713000   0.25434352    -7.9913441     -7.6099242      0.011617111    3853.3367    
    714000   0.24878921    -7.9940584     -7.6209678     -0.073648337    3857.1828    
    715000   0.25200457    -8.0044314     -7.626519       0.089316391    3844.319     
    716000   0.24810763    -8.0103401     -7.6382717     -0.0062800858   3847.8425    
    717000   0.23957995    -8.0010671     -7.6417871      0.064698344    3845.9755    
    718000   0.24711026    -8.0028591     -7.6322864      0.083648269    3845.1631    
    719000   0.24291948    -8.00029       -7.6360019      0.019457884    3849.1313    
    720000   0.24348402    -8.0101281     -7.6449934      0.017677896    3846.2788    
    721000   0.23906688    -8.0132553     -7.6547447      0.07045038     3841.3104    
    722000   0.24290024    -8.0186476     -7.6543883     -0.092057869    3849.7979    
    723000   0.24124276    -8.0039207     -7.642147       0.13873534     3841.5861    
    724000   0.24567155    -8.0137154     -7.6453002      0.030426145    3844.2333    
    725000   0.23806825    -8.0227423     -7.6657292     -0.092105581    3848.0945    
    726000   0.23451817    -8.0157278     -7.6640385      0.071936775    3840.439     
    727000   0.23926027    -8.0151568     -7.6563561     -0.14726322     3853.8262    
    728000   0.23846932    -8.018408      -7.6607934     -0.052299584    3846.6604    
    729000   0.23566555    -8.0262326     -7.6728226     -0.039974931    3843.5647    
    730000   0.23751016    -8.0270594     -7.6708832      0.078411502    3836.7105    
    731000   0.23994416    -8.0244453     -7.664619      -0.0047556727   3842.5694    
    732000   0.23512865    -8.0130957     -7.6604909     -0.059036022    3848.8035    
    733000   0.23735868    -8.0277361     -7.6717871     -0.00048864827  3841.3095    
    734000   0.23142218    -8.0263344     -7.6792879     -0.021631134    3842.4789    
    735000   0.239034      -8.0300668     -7.6716054      0.073461075    3836.0176    
    736000   0.23740688    -8.0246839     -7.6686627      0.0015513666   3842.0333    
    737000   0.2332641     -8.0345341     -7.6847254      0.036418764    3836.4067    
    738000   0.22954719    -8.0343487     -7.690114       0.0035051713   3838.3156    
    739000   0.22550872    -8.0353723     -7.6971938     -0.033414638    3839.9303    
    740000   0.229293      -8.0451807     -7.7013271      0.066726363    3831.622     
    741000   0.22489549    -8.0410781     -7.7038192     -0.045610871    3839.2868    
    742000   0.22147194    -8.0387946     -7.7066698      0.11480691     3830.2142    
    743000   0.21999945    -8.0319413     -7.7020247     -0.14839709     3846.9857    
    744000   0.22872793    -8.0409596     -7.6979535     -0.051712699    3839.3062    
    745000   0.22638687    -8.0406993     -7.7012039      0.067571662    3831.791     
    746000   0.22430325    -8.0532361     -7.7168653      0.025325273    3830.2443    
    747000   0.22138939    -8.0420467     -7.7100457     -0.11645513     3842.2627    
    748000   0.22120381    -8.0465819     -7.7148591      0.058732736    3830.6785    
    749000   0.2162679     -8.0510272     -7.7267065      0.040049598    3829.9657    
    750000   0.21949295    -8.0544014     -7.7252443      0.0033906682   3831.4993    
    751000   0.22358394    -8.0492781     -7.7139861      0.063653065    3829.3484    
    752000   0.22312248    -8.0479576     -7.7133575      0.046043939    3831.3304    
    753000   0.21630509    -8.057606      -7.7332295     -0.026406429    3831.7699    
    754000   0.21702313    -8.0501637     -7.7247104      0.0038059151   3832.4211    
    755000   0.21567237    -8.0483938     -7.7249661      0.01372697     3832.4862    
    756000   0.21445452    -8.0625101     -7.7409088      0.071741195    3824.3715    
    757000   0.21202689    -8.059874      -7.7419132     -0.12130204     3836.0893    
    758000   0.21757713    -8.059803      -7.7335189      0.026539841    3827.9443    
    759000   0.21410397    -8.0527585     -7.7316828      0.018427396    3830.8829    
    760000   0.20872428    -8.0659061     -7.752898       0.080969998    3823.0852    
    761000   0.20815379    -8.0597716     -7.747619       0.0015529914   3828.9422    
    762000   0.21075704    -8.0582352     -7.7421787      0.052949632    3827.2337    
    763000   0.20904583    -8.0725259     -7.7590356      0.041289739    3823.157     
    764000   0.20834169    -8.0740787     -7.7616443     -0.14229487     3832.2839    
    765000   0.21013661    -8.0667027     -7.7515766      0.0089813555   3826.674     
    766000   0.2089984     -8.0669044     -7.7534852     -0.063804829    3830.494     
    767000   0.20932268    -8.0770634     -7.7631579     -0.022968824    3824.854     
    768000   0.20652752    -8.082143      -7.7724291      0.059084743    3818.4616    
    769000   0.20435109    -8.0815629     -7.7751129     -0.0050737078   3822.0612    
    770000   0.20211306    -8.0810764     -7.7779826     -0.008041025    3822.1725    
    771000   0.20331653    -8.0827333     -7.7778348      0.048137875    3818.4725    
    772000   0.19965119    -8.0744656     -7.7750637     -0.0077904774   3824.3265    
    773000   0.20383168    -8.078675      -7.773004      -0.011963884    3823.4695    
    774000   0.20109208    -8.0908808     -7.789318      -0.0045389513   3818.786     
    775000   0.19684959    -8.0847732     -7.7895726      0.035206896    3818.4269    
    776000   0.19946564    -8.079559      -7.7804353     -0.03629795     3824.278     
    777000   0.20126525    -8.0852491     -7.7834267      0.034458722    3818.6639    
    778000   0.19712424    -8.0908613     -7.7952488     -0.067786787    3822.5022    
    779000   0.19500849    -8.0958602     -7.8034206     -0.020950956    3817.7918    
    780000   0.19455033    -8.0967405     -7.804988      -0.0098063117   3817.1356    
    781000   0.19763342    -8.1012042     -7.8048282     -0.12869359     3822.6658    
    782000   0.1951319     -8.0931729     -7.8005482      0.0710574      3813.7958    
    783000   0.1933881     -8.092465      -7.8024553      0.0095301237   3817.4787    
    784000   0.19664732    -8.1001859     -7.8052887     -0.054531897    3818.7963    
    785000   0.19301241    -8.0988641     -7.8094179      0.0039482695   3815.8062    
    786000   0.19127094    -8.1014855     -7.8146508     -0.074466691    3819.0857    
    787000   0.190091      -8.1045722     -7.819507       0.10183824     3808.3482    
    788000   0.18719959    -8.1076791     -7.82695       -0.085272801    3817.1715    
    789000   0.18546829    -8.1098145     -7.8316816      0.018050563    3810.993     
    790000   0.18042158    -8.1085766     -7.8380119     -0.047323709    3814.4572    
    791000   0.18440206    -8.1124346     -7.8359006      0.051761263    3807.7836    
    792000   0.18676453    -8.108875      -7.8287982     -0.031766455    3813.7771    
    793000   0.18630174    -8.110886      -7.8315033      0.14691857     3803.0506    
    794000   0.17776566    -8.1119162     -7.8453344      0.011761821    3809.8577    
    795000   0.18445132    -8.1164602     -7.8398524      0.12303043     3802.5331    
    796000   0.17931759    -8.1125065     -7.8435973     -0.034468878    3812.172     
    797000   0.17987086    -8.1238176     -7.8540787     -0.032349725    3808.985     
    798000   0.17947684    -8.1223902     -7.8532423     -0.0802698      3811.7546    
    799000   0.17506453    -8.1149384     -7.8524072      0.056127992    3806.4296    
    800000   0.17869281    -8.116073      -7.8481008      0.065071813    3805.6366    
    801000   0.1735571     -8.1230166     -7.862746      -0.10447791     3812.7802    
    802000   0.17891353    -8.1267002     -7.858397      -0.00094771365  3806.113     
    803000   0.17332147    -8.1208097     -7.8608925     -0.077639611    3811.9608    
    804000   0.17263337    -8.1267242     -7.8678389      0.057458271    3802.5067    
    805000   0.17279712    -8.1267439     -7.867613      -0.093044889    3810.8123    
    806000   0.17468353    -8.130531      -7.8685712     -0.018160014    3805.895     
    807000   0.17242897    -8.1358602     -7.8772814     -0.13247936     3809.9277    
    808000   0.17005682    -8.1347335     -7.879712       0.0086427138   3802.9449    
    809000   0.17156386    -8.1376896     -7.8804082     -0.035718942    3804.622     
    810000   0.16865974    -8.1311033     -7.8781769      0.03240396     3802.3804    
    811000   0.17113034    -8.1326148     -7.8759835      0.026033838    3802.228     
    812000   0.1705146     -8.1397134     -7.8840054     -0.02037323     3803.0472    
    813000   0.16607834    -8.1401038     -7.8910485      0.052492116    3798.2658    
    814000   0.16976397    -8.1410625     -7.8864802      0.010810362    3800.9201    
    815000   0.16692426    -8.1400632     -7.8897395     -0.065049682    3804.9175    
    816000   0.1649944     -8.1485951     -7.9011654      0.023566062    3797.0368    
    817000   0.16644738    -8.1507507     -7.9011421      0.04818619     3795.2971    
    818000   0.16384304    -8.1435864     -7.8978833     -0.0097158674   3800.3587    
    819000   0.16710003    -8.1472293     -7.896642       0.071300769    3795.1228    
    820000   0.16072442    -8.1433533     -7.9023269     -0.035236997    3801.737     
    821000   0.16156261    -8.1476613     -7.9053779      0.029545791    3796.9383    
    822000   0.16056748    -8.1560297     -7.9152387      0.010698704    3795.1229    
    823000   0.16016225    -8.1589957     -7.9188123     -0.021266287    3796.0535    
    824000   0.15721027    -8.1586421     -7.9228857     -0.0026986431   3795.0278    
    825000   0.15649211    -8.1608361     -7.9261566      0.025182191    3792.746     
    826000   0.15304088    -8.1580754     -7.9285715     -0.041360794    3797.2961    
    827000   0.15649072    -8.1650138     -7.9303364     -0.035877529    3794.6489    
    828000   0.15360984    -8.1620657     -7.9317085      0.022318555    3792.0495    
    829000   0.15444619    -8.1627465     -7.9311351      0.0055424684   3793.1134    
    830000   0.15470412    -8.1631414     -7.9311433     -0.052837246    3796.0287    
    831000   0.15407995    -8.1637766     -7.9327144     -0.0068255733   3793.5019    
    832000   0.15236391    -8.1638184     -7.9353297      0.055055987    3789.7101    
    833000   0.15190268    -8.1654642     -7.9376671     -0.16278599     3801.7569    
    834000   0.14959735    -8.165283      -7.9409431     -0.046147368    3794.6297    
    835000   0.1505183     -8.1706249     -7.9449039      0.012277845    3789.5266    
    836000   0.14630564    -8.1671416     -7.947738       0.026606564    3790.3105    
    837000   0.14289761    -8.1691458     -7.954853       0.16751636     3781.5342    
    838000   0.14677487    -8.1794424     -7.9593351     -0.017178425    3788.372     
    839000   0.14362712    -8.1791781     -7.9637913     -0.019869518    3788.9911    
    840000   0.14408455    -8.1815023     -7.9654295     -0.07916592     3791.4294    
    841000   0.14186992    -8.1796863     -7.9669347      0.029471815    3785.7714    
    842000   0.14300975    -8.1819187     -7.9674577     -0.0070614334   3787.0704    
    843000   0.14323712    -8.1815369     -7.9667349      0.032846319    3785.2338    
    844000   0.14381248    -8.1812302     -7.9655654      0.055334803    3784.2552    
    845000   0.14157674    -8.180104      -7.967792      -0.024985753    3788.6207    
    846000   0.14045407    -8.1832048     -7.9725763     -0.0015418079   3786.424     
    847000   0.14035336    -8.1874791     -7.9770017      0.051536397    3782.4634    
    848000   0.13431404    -8.1846381     -7.9832174     -0.012237192    3786.1789    
    849000   0.13495774    -8.1897917     -7.9874057     -0.055500433    3787.0341    
    850000   0.13587722    -8.19402       -7.9902551      0.03525576     3780.6686    
    851000   0.1355899     -8.1948915     -7.9915575      0.034603202    3780.5337    
    852000   0.13491802    -8.1892925     -7.9869661      0.054307307    3781.3468    
    853000   0.13539819    -8.1912665     -7.98822       -0.052247417    3786.2794    
    854000   0.132767      -8.1947815     -7.9956807      0.047556653    3779.4247    
    855000   0.1313167     -8.1986844     -8.0017586      0.037543663    3778.9848    
    856000   0.13131279    -8.2015713     -8.0046514     -0.012089876    3780.8205    
    857000   0.1293323     -8.1981568     -8.0042069     -0.028311687    3782.6002    
    858000   0.13040686    -8.1947913     -7.9992299      0.022744294    3781.0507    
    859000   0.12938956    -8.2050967     -8.0110609      0.034066862    3776.9911    
    860000   0.12733946    -8.2066539     -8.0156925      0.074452518    3774.4013    
    861000   0.12474792    -8.2035495     -8.0164744      0.022732295    3777.9106    
    862000   0.12650254    -8.2034092     -8.0137028     -0.04819636     3781.8508    
    863000   0.12631814    -8.2076158     -8.018186      -0.043538475    3780.5597    
    864000   0.12652081    -8.2152356     -8.0255019     -0.0091796326   3776.2962    
    865000   0.12306079    -8.2137178     -8.0291727      0.025001929    3774.6147    
    866000   0.12407433    -8.2130655     -8.0270005     -0.012537901    3776.7282    
    867000   0.12106085    -8.2132057     -8.0316598     -0.091534989    3780.7375    
    868000   0.11922551    -8.2150932     -8.0362996     -0.028006681    3776.4039    
    869000   0.12146949    -8.2199235     -8.0377649      0.069709138    3770.0366    
    870000   0.12198028    -8.2167271     -8.0338025      0.030617874    3773.2879    
    871000   0.11948108    -8.2177797     -8.0386029     -0.030621574    3775.9403    
    872000   0.11569092    -8.2190925     -8.0455995      0.082786135    3769.1491    
    873000   0.11623991    -8.22317       -8.0488538      0.029705644    3770.9784    
    874000   0.11609495    -8.2248428     -8.0507439     -0.043595071    3774.5856    
    875000   0.11613978    -8.221892      -8.0477259     -0.034984684    3774.766     
    876000   0.1115629     -8.2248571     -8.0575545     -0.015073875    3772.4916    
    877000   0.11310512    -8.2294964     -8.0598812     -0.027035002    3772.0325    
    878000   0.11504343    -8.2258101     -8.0532881      0.013699792    3770.9951    
    879000   0.11221383    -8.2303224     -8.0620438      0.028724802    3768.5018    
    880000   0.1095179     -8.2308263     -8.0665906      0.015519991    3769.2163    
    881000   0.11152088    -8.2374873     -8.0702478     -0.023111783    3769.2995    
    882000   0.10853906    -8.2339907     -8.0712228      0.055663945    3765.6824    
    883000   0.10880428    -8.2316745     -8.0685089      0.032252244    3767.7998    
    884000   0.10994774    -8.2370627     -8.0721824      0.056039814    3765.0264    
    885000   0.10621813    -8.2393689     -8.0800816     -0.018218871    3767.8221    
    886000   0.10862813    -8.2410357     -8.0781343     -0.062413286    3770.0726    
    887000   0.10534237    -8.2396228     -8.0816487     -0.025259262    3768.2485    
    888000   0.10359821    -8.2435516     -8.0881931      0.0011093256   3765.8676    
    889000   0.10412287    -8.2426916     -8.0865464      0.0096539929   3765.4267    
    890000   0.1032092     -8.2428578     -8.0880827     -0.040150981    3767.8652    
    891000   0.10230806    -8.243982      -8.0905583     -0.015018763    3766.1734    
    892000   0.099375196   -8.247897      -8.0988715      0.022003043    3763.0331    
    893000   0.10069912    -8.2480258     -8.0970149      0.0033357374   3763.6948    
    894000   0.10114191    -8.2499888     -8.0983139     -0.0023044035   3763.5208    
    895000   0.098470937   -8.2516914     -8.1040219     -0.045731201    3765.7771    
    896000   0.096352931   -8.2528164     -8.1083232     -0.0542642      3765.2893    
    897000   0.095735331   -8.2511725     -8.1076054     -0.03671619     3764.8142    
    898000   0.094966046   -8.2542675     -8.111854      -0.03027318     3763.5227    
    899000   0.094280176   -8.2582609     -8.116876      -0.0090686452   3761.1303    
    900000   0.094421481   -8.2601714     -8.1185746     -0.007185117    3760.5559    
    901000   0.093825726   -8.2604441     -8.1197407      2.1339432e-05  3759.8957    
    902000   0.093807327   -8.2592801     -8.1186042     -0.014863392    3761.3437    
    903000   0.089869656   -8.2617704     -8.1269996     -0.014865636    3759.9528    
    904000   0.092329421   -8.2645112     -8.1260517     -0.10845906     3764.4942    
    905000   0.090141853   -8.2658474     -8.1306685     -0.022251464    3759.2073    
    906000   0.089380211   -8.2656659     -8.1316291     -0.046333673    3760.5384    
    907000   0.085132225   -8.2722898     -8.1446234      0.013607171    3755.0937    
    908000   0.088377166   -8.2719058     -8.1393732      0.032368534    3754.4924    
    909000   0.086403677   -8.2705641     -8.140991       0.034521401    3754.6236    
    910000   0.085460377   -8.2703938     -8.1422352     -0.0010353096   3756.5059    
    911000   0.08474004    -8.2708224     -8.1437442      0.0082027653   3755.7403    
    912000   0.084397882   -8.2719498     -8.1453846     -0.0012268567   3756.1424    
    913000   0.08291244    -8.2772638     -8.1529262      0.017319037    3753.3969    
    914000   0.084539829   -8.2778819     -8.1511038      0.020925689    3753.0584    
    915000   0.082769025   -8.2780231     -8.1539006      0.051832631    3751.1324    
    916000   0.080484622   -8.2797359     -8.1590392      0.077100404    3749.2968    
    917000   0.080424357   -8.2832498     -8.1626434      0.034485812    3750.4938    
    918000   0.079011926   -8.2823704     -8.1638821     -0.0016824263   3752.5837    
    919000   0.077774898   -8.2838599     -8.1672267      0.0056888481   3751.9835    
    920000   0.07859791    -8.2852489     -8.1673815     -0.02225892     3752.9421    
    921000   0.077397036   -8.2882238     -8.1721572     -0.08483463     3755.1633    
    922000   0.076507555   -8.287752      -8.1730193     -0.024816669    3752.0652    
    923000   0.073446015   -8.2884828     -8.1783414     -0.0033304689   3750.3174    
    924000   0.074861125   -8.2901154     -8.1778518      0.02403296     3748.854     
    925000   0.07272522    -8.2911761     -8.1821155     -0.013666939    3750.2609    
    926000   0.072725112   -8.2929843     -8.1839239     -0.0068353001   3749.1818    
    927000   0.071908537   -8.2963145     -8.1884786     -0.0043949085   3748.1291    
    928000   0.070453847   -8.2950854     -8.189431      -0.0084847101   3748.5444    
    929000   0.069479226   -8.296765      -8.1925722      0.016461631    3746.8595    
    930000   0.068882389   -8.3000003     -8.1967026     -0.014751804    3747.2585    
    931000   0.069261396   -8.2997106     -8.1958445     -0.0088317192   3747.1763    
    932000   0.067129532   -8.2996864     -8.1990173     -0.0088501672   3746.9235    
    933000   0.066443559   -8.3038607     -8.2042202      0.026577692    3743.9963    
    934000   0.064985131   -8.3012467     -8.2037934      0.013474966    3745.1677    
    935000   0.06443337    -8.3048611     -8.2082352     -0.02858467     3746.3515    
    936000   0.065052814   -8.3054359     -8.2078811     -0.0083285768   3745.1626    
    937000   0.062218311   -8.3077969     -8.2144927     -0.006037748    3744.3066    
    938000   0.0632462     -8.3101178     -8.2152722     -0.00061076816  3743.2629    
    939000   0.062019079   -8.3100822     -8.2170768     -0.0057204182   3743.5559    
    940000   0.060630317   -8.3123202     -8.2213974     -0.019436646    3743.915     
    941000   0.059765741   -8.3148676     -8.2252414     -0.011770581    3742.3962    
    942000   0.058188944   -8.313895      -8.2266334      0.020274657    3740.6604    
    943000   0.058759718   -8.3169057     -8.2287881     -0.0063948928   3741.3675    
    944000   0.057499455   -8.3180752     -8.2318476      0.040323866    3738.489     
    945000   0.056668366   -8.3177271     -8.2327458      0.066790344    3737.1871    
    946000   0.055064828   -8.3200608     -8.2374842      0.037868738    3737.8453    
    947000   0.055796459   -8.3221171     -8.2384434      0.0092257241   3738.7453    
    948000   0.053675249   -8.3221984     -8.2417056      0.011593778    3738.5667    
    949000   0.053675919   -8.3250402     -8.2445465      0.023330162    3737.0238    
    950000   0.051551656   -8.3272209     -8.2499127      0.011544008    3736.8487    
    951000   0.050889064   -8.3267318     -8.2504173      0.004017393    3737.4015    
    952000   0.050011504   -8.3288564     -8.2538579     -0.018415268    3737.857     
    953000   0.050187153   -8.3287366     -8.2534747     -0.026125656    3738.504     
    954000   0.048097984   -8.3300546     -8.2579257     -0.028661141    3737.9919    
    955000   0.048105351   -8.3329525     -8.2608125     -0.022003779    3736.7666    
    956000   0.047736434   -8.3322089     -8.2606222      0.017000807    3734.7415    
    957000   0.045724858   -8.3354039     -8.2668338      0.067399336    3731.2934    
    958000   0.045839169   -8.3350502     -8.2663086      0.046932316    3732.3998    
    959000   0.044322117   -8.3376419     -8.2711754      0.041543871    3731.8086    
    960000   0.043236942   -8.3380833     -8.2732441      0.034808521    3732.0705    
    961000   0.042763704   -8.3396245     -8.2754949      0.04513382     3730.9798    
    962000   0.0405269     -8.3400187     -8.2792436      0.032578954    3731.355     
    963000   0.041460096   -8.3420128     -8.2798382      0.0072563906   3732.0472    
    964000   0.040228983   -8.3437962     -8.2834678     -0.0059377737   3732.2748    
    965000   0.039356401   -8.3458618     -8.286842      -0.016294396    3732.1928    
    966000   0.038692394   -8.3454264     -8.2874023     -0.01370016     3732.0885    
    967000   0.037168002   -8.3478635     -8.2921255      0.0074245273   3730.1063    
    968000   0.03746547    -8.3483204     -8.2921362      0.03173955     3728.8806    
    969000   0.035967191   -8.350397      -8.2964597      0.013110883    3729.0659    
    970000   0.034830803   -8.3503208     -8.2980876      0.011845465    3729.252     
    971000   0.034217237   -8.3523703     -8.3010573      0.0098874671   3728.5986    
    972000   0.034373334   -8.3554123     -8.3038651     -0.0015099267   3728.26      
    973000   0.03320303    -8.355425      -8.3056329     -0.0012225658   3728.2035    
    974000   0.030827143   -8.3559109     -8.3096818     -0.052204803    3730.4614    
    975000   0.031166623   -8.3572874     -8.3105492     -0.044246361    3729.6881    
    976000   0.029525704   -8.3587935     -8.314516      -0.0059545294   3727.1785    
    977000   0.029604775   -8.359238      -8.3148419      0.0072830633   3726.3537    
    978000   0.028337926   -8.3614053     -8.318909       0.010845247    3725.448     
    979000   0.027921448   -8.3622867     -8.320415       0.046870835    3723.308     
    980000   0.026737184   -8.3644856     -8.3243898      0.033475958    3723.2698    
    981000   0.026235524   -8.3651697     -8.3258263     -0.01891687     3725.8178    
    982000   0.025202961   -8.3663791     -8.3285841     -0.029073734    3725.9416    
    983000   0.024312552   -8.3675103     -8.3310506     -0.011135667    3724.677     
    984000   0.023895326   -8.3694684     -8.3336344     -0.012343018    3724.1644    
    985000   0.022823165   -8.3703923     -8.3361661     -0.025679816    3724.3792    
    986000   0.021757932   -8.3713313     -8.3387026      0.0061906653   3722.5628    
    987000   0.021299931   -8.3732639     -8.341322       0.027632676    3720.7733    
    988000   0.020189627   -8.3741082     -8.3438314      0.019187139    3720.878     
    989000   0.019434136   -8.3755042     -8.3463603     -0.0020880195   3721.5001    
    990000   0.018444858   -8.3765586     -8.3488982     -0.0052764867   3721.3033    
    991000   0.017842466   -8.3781835     -8.3514265     -0.018309285    3721.4596    
    992000   0.016898305   -8.3793064     -8.3539653     -0.021467535    3721.2758    
    993000   0.016205044   -8.3808356     -8.3565341      0.0053081497   3719.4306    
    994000   0.015221045   -8.3819163     -8.3590904      0.033119383    3717.59      
    995000   0.014287383   -8.3830615     -8.3616357      0.022001345    3717.7593    
    996000   0.013324551   -8.3841009     -8.3641191     -0.0072507355   3718.9763    
    997000   0.012601576   -8.3855673     -8.3666697     -0.011210311    3718.6374    
    998000   0.011960151   -8.3871505     -8.3692148     -0.0071631611   3717.9579    
    999000   0.011094951   -8.3883981     -8.3717598      0.0053735977   3716.9713    
   1000000   0.010196631   -8.3895784     -8.3742872      0.003659873    3716.6096    
Loop time of 17877.3 on 1 procs for 1000000 steps with 4000 atoms

Performance: 24164.710 tau/day, 55.937 timesteps/s, 223.747 katom-step/s
100.0% CPU use with 1 MPI tasks x 1 OpenMP threads

MPI task timing breakdown:
Section |  min time  |  avg time  |  max time  |%varavg| %total
---------------------------------------------------------------
Pair    | 15466      | 15466      | 15466      |   0.0 | 86.51
Neigh   | 2178.7     | 2178.7     | 2178.7     |   0.0 | 12.19
Comm    | 84.188     | 84.188     | 84.188     |   0.0 |  0.47
Output  | 0.63962    | 0.63962    | 0.63962    |   0.0 |  0.00
Modify  | 120.89     | 120.89     | 120.89     |   0.0 |  0.68
Other   |            | 27.15      |            |       |  0.15

Nlocal:           4000 ave        4000 max        4000 min
Histogram: 1 0 0 0 0 0 0 0 0 0
Nghost:          15095 ave       15095 max       15095 min
Histogram: 1 0 0 0 0 0 0 0 0 0
Neighs:    1.32643e+06 ave 1.32643e+06 max 1.32643e+06 min
Histogram: 1 0 0 0 0 0 0 0 0 0

Total # of neighbors = 1326426
Ave neighs/atom = 331.6065
Neighbor list builds = 85870
Dangerous builds = 0
Total wall time: 5:16:05
