LAMMPS (2 Aug 2023 - Update 3)
OMP_NUM_THREADS environment is not set. Defaulting to 1 thread. (src/comm.cpp:98)
  using 1 OpenMP thread(s) per MPI task
units metal
boundary p p p
atom_style atomic

variable Tstart equal 10.0
variable Tstop equal 1000
variable Tdamp equal 0.2

lattice fcc 3.62
Lattice spacing in x,y,z = 3.62 3.62 3.62
region simbox block 0 8 0 8 0 8
create_box 1 simbox
Created orthogonal box = (0 0 0) to (28.96 28.96 28.96)
  1 by 1 by 1 MPI processor grid
create_atoms 1 box
Created 2048 atoms
  using lattice units in orthogonal box = (0 0 0) to (28.96 28.96 28.96)
  create_atoms CPU = 0.001 seconds

pair_style eam
pair_coeff 1 1 Cu_u3.eam
Reading eam potential file Cu_u3.eam with DATE: 2007-06-11

velocity all create ${Tstart} 825577 dist gaussian
velocity all create 10 825577 dist gaussian

# Equilibrium step
fix 1 all nvt temp ${Tstart} ${Tstart} ${Tdamp}
fix 1 all nvt temp 10 ${Tstart} ${Tdamp}
fix 1 all nvt temp 10 10 ${Tdamp}
fix 1 all nvt temp 10 10 0.2
thermo 100
run 5000
Neighbor list info ...
  update: every = 1 steps, delay = 0 steps, check = yes
  max neighbors/atom: 2000, page size: 100000
  master list distance cutoff = 6.95
  ghost atom cutoff = 6.95
  binsize = 3.475, bins = 9 9 9
  1 neighbor lists, perpetual/occasional/extra = 1 0 0
  (1) pair eam, perpetual
      attributes: half, newton on
      pair build: half/bin/atomonly/newton
      stencil: half/bin/3d
      bin: standard
Per MPI rank memory allocation (min/avg/max) = 3.876 | 3.876 | 3.876 Mbytes
   Step          Temp          E_pair         E_mol          TotEng         Press     
         0   10            -7249.7408      0             -7247.0948     -5576.3455    
       100   5.1289198     -7248.3862      0             -7247.0291     -5346.0525    
       200   5.2845071     -7248.2872      0             -7246.889      -5329.6982    
       300   6.0513457     -7248.3128      0             -7246.7117     -5326.8768    
       400   5.7401661     -7248.0407      0             -7246.5219     -5267.9411    
       500   6.8232652     -7248.117       0             -7246.3116     -5278.0531    
       600   6.8573913     -7247.9035      0             -7246.0891     -5228.4142    
       700   7.6133288     -7247.8685      0             -7245.8541     -5214.1837    
       800   8.1577346     -7247.7753      0             -7245.6168     -5185.7962    
       900   7.6417067     -7247.4002      0             -7245.3782     -5116.9343    
      1000   8.5715683     -7247.4068      0             -7245.1388     -5109.516     
      1100   8.9738864     -7247.2814      0             -7244.9069     -5078.3793    
      1200   8.4355308     -7246.9263      0             -7244.6943     -5003.7855    
      1300   10.610831     -7247.3089      0             -7244.5013     -5066.2187    
      1400   10.914988     -7247.2346      0             -7244.3466     -5043.2775    
      1500   9.0451777     -7246.6405      0             -7244.2472     -4935.9378    
      1600   10.563309     -7246.9828      0             -7244.1878     -5000.284     
      1700   9.1977995     -7246.64        0             -7244.2064     -4937.3306    
      1800   9.9716974     -7246.9127      0             -7244.2743     -4985.6577    
      1900   10.611358     -7247.1836      0             -7244.3759     -5038.6262    
      2000   8.6880844     -7246.7879      0             -7244.4891     -4974.5849    
      2100   9.8641448     -7247.193       0             -7244.583      -5051.4109    
      2200   10.105744     -7247.3067      0             -7244.6328     -5061.5016    
      2300   9.8784299     -7247.2567      0             -7244.6429     -5062.5237    
      2400   9.3981545     -7247.0941      0             -7244.6073     -5038.4608    
      2500   9.0333548     -7246.9173      0             -7244.5271     -4992.5613    
      2600   10.105004     -7247.1134      0             -7244.4397     -5029.1464    
      2700   10.197414     -7247.0581      0             -7244.3599     -5010.7118    
      2800   8.8928314     -7246.6651      0             -7244.3121     -4945.0813    
      2900   10.351861     -7247.0272      0             -7244.2882     -5019.4608    
      3000   10.173616     -7246.9973      0             -7244.3054     -4995.983     
      3100   9.5739147     -7246.8983      0             -7244.3651     -4989.3864    
      3200   10.751625     -7247.2675      0             -7244.4227     -5056.1874    
      3300   9.59618       -7247.0431      0             -7244.504      -5017.3252    
      3400   10.508517     -7247.3374      0             -7244.5569     -5071.34      
      3500   10.082668     -7247.2574      0             -7244.5896     -5061.7245    
      3600   10.032768     -7247.2356      0             -7244.581      -5053.0527    
      3700   9.7282341     -7247.1245      0             -7244.5504     -5035.7088    
      3800   9.758728      -7247.0664      0             -7244.4843     -5024.792     
      3900   10.103498     -7247.0864      0             -7244.4131     -5019.8693    
      4000   10.931486     -7247.253       0             -7244.3606     -5050.4549    
      4100   10.355755     -7247.063       0             -7244.3229     -5009.1658    
      4200   9.2736423     -7246.7865      0             -7244.3328     -4975.7756    
      4300   10.644205     -7247.1743      0             -7244.3579     -5040.9652    
      4400   10.286729     -7247.1191      0             -7244.3973     -5019.8838    
      4500   10.577527     -7247.2488      0             -7244.45       -5055.3255    
      4600   9.9172676     -7247.1332      0             -7244.5091     -5033.9636    
      4700   9.5050541     -7247.0648      0             -7244.5498     -5022.9634    
      4800   10.146269     -7247.247       0             -7244.5623     -5058.2       
      4900   9.2193806     -7246.9923      0             -7244.5529     -5009.4264    
      5000   9.7284334     -7247.0886      0             -7244.5146     -5031.6456    
Loop time of 13.3442 on 1 procs for 5000 steps with 2048 atoms

Performance: 32.374 ns/day, 0.741 hours/ns, 374.695 timesteps/s, 767.376 katom-step/s
100.0% CPU use with 1 MPI tasks x 1 OpenMP threads

MPI task timing breakdown:
Section |  min time  |  avg time  |  max time  |%varavg| %total
---------------------------------------------------------------
Pair    | 13.011     | 13.011     | 13.011     |   0.0 | 97.50
Neigh   | 0          | 0          | 0          |   0.0 |  0.00
Comm    | 0.096029   | 0.096029   | 0.096029   |   0.0 |  0.72
Output  | 0.00082507 | 0.00082507 | 0.00082507 |   0.0 |  0.01
Modify  | 0.18548    | 0.18548    | 0.18548    |   0.0 |  1.39
Other   |            | 0.05104    |            |       |  0.38

Nlocal:           2048 ave        2048 max        2048 min
Histogram: 1 0 0 0 0 0 0 0 0 0
Nghost:           4035 ave        4035 max        4035 min
Histogram: 1 0 0 0 0 0 0 0 0 0
Neighs:         137216 ave      137216 max      137216 min
Histogram: 1 0 0 0 0 0 0 0 0 0

Total # of neighbors = 137216
Ave neighs/atom = 67
Neighbor list builds = 0
Dangerous builds = 0
unfix 1
reset_timestep 0
thermo 1000
thermo_style custom step temp pe etotal

# Heating step
print "Production steps started!"
Production steps started!
fix 2 all nvt temp ${Tstart} ${Tstop} ${Tdamp}
fix 2 all nvt temp 10 ${Tstop} ${Tdamp}
fix 2 all nvt temp 10 1000 ${Tdamp}
fix 2 all nvt temp 10 1000 0.2
run 120000
Per MPI rank memory allocation (min/avg/max) = 3.876 | 3.876 | 3.876 Mbytes
   Step          Temp          PotEng         TotEng    
         0   9.7284334     -7247.0886     -7244.5146    
      1000   14.124984     -7246.1506     -7242.4132    
      2000   22.799863     -7243.5497     -7237.517     
      3000   33.816859     -7240.6929     -7231.7452    
      4000   41.035642     -7238.0398     -7227.1819    
      5000   52.193862     -7236.5556     -7222.7454    
      6000   56.90881      -7233.4453     -7218.3875    
      7000   69.049373     -7232.2514     -7213.9813    
      8000   76.135345     -7229.7695     -7209.6245    
      9000   84.738092     -7227.6988     -7205.2775    
     10000   93.71818      -7225.7128     -7200.9154    
     11000   100.5014      -7223.3226     -7196.7304    
     12000   106.77967     -7221.3026     -7193.0491    
     13000   117.03454     -7219.4167     -7188.4499    
     14000   123.16435     -7216.7587     -7184.17      
     15000   130.86197     -7214.4168     -7179.7913    
     16000   143.77814     -7213.347      -7175.304     
     17000   149.83732     -7210.8026     -7171.1563    
     18000   155.81419     -7207.6132     -7166.3855    
     19000   166.97817     -7206.5422     -7162.3605    
     20000   169.92698     -7202.6435     -7157.6816    
     21000   183.61729     -7201.9825     -7153.3982    
     22000   185.63784     -7198.3889     -7149.2699    
     23000   197.01573     -7197.0064     -7144.877     
     24000   208.57131     -7194.7059     -7139.5189    
     25000   215.60444     -7192.2395     -7135.1915    
     26000   230.5808      -7190.9723     -7129.9617    
     27000   234.64183     -7188.0723     -7125.9871    
     28000   236.23046     -7183.3847     -7120.8792    
     29000   249.94288     -7184.0167     -7117.883     
     30000   249.3353      -7181.3417     -7115.3687    
     31000   263.91556     -7178.7774     -7108.9465    
     32000   275.88711     -7176.6226     -7103.6241    
     33000   279.45566     -7174.2633     -7100.3206    
     34000   288.0926      -7172.7899     -7096.5619    
     35000   297.80278     -7171.0157     -7092.2184    
     36000   307.64172     -7165.9742     -7084.5736    
     37000   309.43928     -7163.9439     -7082.0677    
     38000   329.56472     -7164.1457     -7076.9444    
     39000   327.18723     -7162.2164     -7075.6441    
     40000   338.09152     -7159.3988     -7069.9413    
     41000   344.62785     -7155.7507     -7064.5637    
     42000   349.61665     -7154.0053     -7061.4983    
     43000   361.97437     -7150.8027     -7055.0259    
     44000   367.1583      -7148.3287     -7051.1803    
     45000   386.16466     -7149.5588     -7047.3814    
     46000   373.54475     -7147.0467     -7048.2084    
     47000   399.46359     -7142.4246     -7036.7283    
     48000   399.61627     -7142.9788     -7037.2421    
     49000   412.15336     -7140.9962     -7031.9423    
     50000   404.02586     -7139.6387     -7032.7352    
     51000   435.65779     -7134.7423     -7019.4692    
     52000   437.89987     -7136.9435     -7021.0772    
     53000   450.55148     -7131.5334     -7012.3195    
     54000   448.12076     -7130.2779     -7011.7071    
     55000   468.1683      -7128.792      -7004.9168    
     56000   463.27742     -7123.1123     -7000.5312    
     57000   480.37149     -7122.3797     -6995.2756    
     58000   480.45396     -7122.7649     -6995.6389    
     59000   504.25743     -7120.1585     -6986.7343    
     60000   517.28532     -7116.8289     -6979.9576    
     61000   530.1751      -7118.6794     -6978.3975    
     62000   534.51035     -7109.1806     -6967.7516    
     63000   539.39916     -7112.4407     -6969.7181    
     64000   559.26335     -7106.0539     -6958.0753    
     65000   566.93725     -7107.7963     -6957.7872    
     66000   549.85316     -7102.5245     -6957.0358    
     67000   537.35458     -7103.4849     -6961.3033    
     68000   579.08682     -7096.6123     -6943.3885    
     69000   576.18044     -7098.309      -6945.8542    
     70000   590.1897      -7096.6211     -6940.4595    
     71000   585.11902     -7096.8694     -6942.0495    
     72000   612.40702     -7089.7928     -6927.7527    
     73000   592.90588     -7088.5222     -6931.642     
     74000   597.66512     -7084.6275     -6926.488     
     75000   623.79035     -7079.8937     -6914.8416    
     76000   653.7864      -7082.858      -6909.8691    
     77000   633.59657     -7081.4015     -6913.7547    
     78000   662.92373     -7074.9397     -6899.5331    
     79000   678.05088     -7075.2189     -6895.8097    
     80000   662.45924     -7072.1851     -6896.9014    
     81000   673.74099     -7076.6232     -6898.3543    
     82000   688.03281     -7069.7857     -6887.7353    
     83000   695.84182     -7064.4344     -6880.3178    
     84000   713.31008     -7065.4688     -6876.7302    
     85000   721.77322     -7063.3773     -6872.3993    
     86000   725.99129     -7059.1542     -6867.0602    
     87000   728.01693     -7054.1932     -6861.5632    
     88000   720.00619     -7052.9065     -6862.3961    
     89000   713.62681     -7056.0387     -6867.2162    
     90000   761.97515     -7052.6872     -6851.072     
     91000   768.24205     -7046.937      -6843.6636    
     92000   786.08019     -7049.5649     -6841.5716    
     93000   758.90017     -7045.2378     -6844.4362    
     94000   760.92021     -7045.3089     -6843.9728    
     95000   799.07962     -7037.1232     -6825.6903    
     96000   798.24079     -7036.4384     -6825.2274    
     97000   803.09525     -7043.9052     -6831.4098    
     98000   816.89773     -7032.646      -6816.4986    
     99000   832.18618     -7030.56       -6810.3673    
    100000   857.90094     -7027.1235     -6800.1267    
    101000   841.07879     -7018.6782     -6796.1325    
    102000   886.3182      -7028.4111     -6793.8953    
    103000   866.47657     -7019.9313     -6790.6655    
    104000   877.45192     -7019.9675     -6787.7977    
    105000   879.7152      -7021.6979     -6788.9292    
    106000   877.63939     -7019.3281     -6787.1087    
    107000   857.06954     -7013.5901     -6786.8134    
    108000   925.76158     -7011.6443     -6766.6919    
    109000   912.89532     -7005.8665     -6764.3185    
    110000   893.10482     -7012.1635     -6775.852     
    111000   927.95087     -7005.6373     -6760.1057    
    112000   940.48459     -7001.0515     -6752.2035    
    113000   964.43269     -7000.8127     -6745.6282    
    114000   903.67548     -6997.4673     -6758.3588    
    115000   965.85144     -7002.3628     -6746.8028    
    116000   971.65559     -6994.1849     -6737.0892    
    117000   1003.4352     -6988.8283     -6723.3239    
    118000   975.03123     -6983.7663     -6725.7774    
    119000   982.19562     -6982.0258     -6722.1413    
    120000   973.54177     -6984.4807     -6726.8859    
Loop time of 409.679 on 1 procs for 120000 steps with 2048 atoms

Performance: 25.308 ns/day, 0.948 hours/ns, 292.912 timesteps/s, 599.885 katom-step/s
100.0% CPU use with 1 MPI tasks x 1 OpenMP threads

MPI task timing breakdown:
Section |  min time  |  avg time  |  max time  |%varavg| %total
---------------------------------------------------------------
Pair    | 401.71     | 401.71     | 401.71     |   0.0 | 98.05
Neigh   | 0          | 0          | 0          |   0.0 |  0.00
Comm    | 2.3052     | 2.3052     | 2.3052     |   0.0 |  0.56
Output  | 0.0021836  | 0.0021836  | 0.0021836  |   0.0 |  0.00
Modify  | 4.439      | 4.439      | 4.439      |   0.0 |  1.08
Other   |            | 1.223      |            |       |  0.30

Nlocal:           2048 ave        2048 max        2048 min
Histogram: 1 0 0 0 0 0 0 0 0 0
Nghost:           4035 ave        4035 max        4035 min
Histogram: 1 0 0 0 0 0 0 0 0 0
Neighs:         137216 ave      137216 max      137216 min
Histogram: 1 0 0 0 0 0 0 0 0 0

Total # of neighbors = 137216
Ave neighs/atom = 67
Neighbor list builds = 0
Dangerous builds = 0
print "Simulation complete!"
Simulation complete!
Total wall time: 0:07:03
