LAMMPS data file via write_data, version 2 Aug 2023, timestep = 0, units = real

1600 atoms
1 atom types

0 85.25999999999999 xlo xhi
0 49.22344 ylo yhi
-16.746485000000003 16.746485000000003 zlo zhi

Masses

1 12.01115

Atoms # charge

1 1 0 0 0 0 0 0 0
2 1 0 1.4195790000000001 0 0 0 0 0
3 1 0 2.1315 1.230586 0 0 0 0
4 1 0 3.5510789999999997 1.230586 0 0 0 0
5 1 0 4.263 0 0 0 0 0
6 1 0 5.682579 0 0 0 0 0
7 1 0 6.3945 1.230586 0 0 0 0
8 1 0 7.8140789999999996 1.230586 0 0 0 0
9 1 0 8.526 0 0 0 0 0
10 1 0 9.945579 0 0 0 0 0
11 1 0 10.6575 1.230586 0 0 0 0
12 1 0 12.077079000000001 1.230586 0 0 0 0
13 1 0 12.789 0 0 0 0 0
14 1 0 14.208579000000002 0 0 0 0 0
15 1 0 14.9205 1.230586 0 0 0 0
16 1 0 16.340079000000003 1.230586 0 0 0 0
17 1 0 17.052 0 0 0 0 0
18 1 0 18.471579000000002 0 0 0 0 0
19 1 0 19.183500000000002 1.230586 0 0 0 0
20 1 0 20.603079 1.230586 0 0 0 0
21 1 0 21.315 0 0 0 0 0
22 1 0 22.734579 0 0 0 0 0
23 1 0 23.4465 1.230586 0 0 0 0
24 1 0 24.866079000000003 1.230586 0 0 0 0
25 1 0 25.578 0 0 0 0 0
26 1 0 26.997579000000005 0 0 0 0 0
27 1 0 27.709500000000002 1.230586 0 0 0 0
28 1 0 29.129079000000004 1.230586 0 0 0 0
29 1 0 29.841 0 0 0 0 0
30 1 0 31.260579000000003 0 0 0 0 0
31 1 0 31.9725 1.230586 0 0 0 0
32 1 0 33.392079 1.230586 0 0 0 0
33 1 0 34.104 0 0 0 0 0
34 1 0 35.523579000000005 0 0 0 0 0
35 1 0 36.2355 1.230586 0 0 0 0
36 1 0 37.65507900000001 1.230586 0 0 0 0
37 1 0 38.367000000000004 0 0 0 0 0
38 1 0 39.786579 0 0 0 0 0
39 1 0 40.4985 1.230586 0 0 0 0
40 1 0 41.918079000000006 1.230586 0 0 0 0
41 1 0 42.63 0 0 0 0 0
42 1 0 44.049579 0 0 0 0 0
43 1 0 44.7615 1.230586 0 0 0 0
44 1 0 46.181079000000004 1.230586 0 0 0 0
45 1 0 46.893 0 0 0 0 0
46 1 0 48.31257900000001 0 0 0 0 0
47 1 0 49.0245 1.230586 0 0 0 0
48 1 0 50.444079 1.230586 0 0 0 0
49 1 0 51.156 0 0 0 0 0
50 1 0 52.575579000000005 0 0 0 0 0
51 1 0 53.2875 1.230586 0 0 0 0
52 1 0 54.70707900000001 1.230586 0 0 0 0
53 1 0 55.419000000000004 0 0 0 0 0
54 1 0 56.838579 0 0 0 0 0
55 1 0 57.5505 1.230586 0 0 0 0
56 1 0 58.970079000000005 1.230586 0 0 0 0
57 1 0 59.682 0 0 0 0 0
58 1 0 61.10157900000001 0 0 0 0 0
59 1 0 61.813500000000005 1.230586 0 0 0 0
60 1 0 63.233079000000004 1.230586 0 0 0 0
61 1 0 63.945 0 0 0 0 0
62 1 0 65.364579 0 0 0 0 0
63 1 0 66.0765 1.230586 0 0 0 0
64 1 0 67.49607900000001 1.230586 0 0 0 0
65 1 0 68.208 0 0 0 0 0
66 1 0 69.627579 0 0 0 0 0
67 1 0 70.3395 1.230586 0 0 0 0
68 1 0 71.759079 1.230586 0 0 0 0
69 1 0 72.471 0 0 0 0 0
70 1 0 73.89057899999999 0 0 0 0 0
71 1 0 74.6025 1.230586 0 0 0 0
72 1 0 76.02207899999999 1.230586 0 0 0 0
73 1 0 76.73400000000001 0 0 0 0 0
74 1 0 78.153579 0 0 0 0 0
75 1 0 78.8655 1.230586 0 0 0 0
76 1 0 80.285079 1.230586 0 0 0 0
77 1 0 80.997 0 0 0 0 0
78 1 0 82.416579 0 0 0 0 0
79 1 0 83.1285 1.230586 0 0 0 0
80 1 0 84.548079 1.230586 0 0 0 0
81 1 0 0 2.461172 0 0 0 0
82 1 0 1.4195790000000001 2.461172 0 0 0 0
83 1 0 2.1315 3.691758 0 0 0 0
84 1 0 3.5510789999999997 3.691758 0 0 0 0
85 1 0 4.263 2.461172 0 0 0 0
86 1 0 5.682579 2.461172 0 0 0 0
87 1 0 6.3945 3.691758 0 0 0 0
88 1 0 7.8140789999999996 3.691758 0 0 0 0
89 1 0 8.526 2.461172 0 0 0 0
90 1 0 9.945579 2.461172 0 0 0 0
91 1 0 10.6575 3.691758 0 0 0 0
92 1 0 12.077079000000001 3.691758 0 0 0 0
93 1 0 12.789 2.461172 0 0 0 0
94 1 0 14.208579000000002 2.461172 0 0 0 0
95 1 0 14.9205 3.691758 0 0 0 0
96 1 0 16.340079000000003 3.691758 0 0 0 0
97 1 0 17.052 2.461172 0 0 0 0
98 1 0 18.471579000000002 2.461172 0 0 0 0
99 1 0 19.183500000000002 3.691758 0 0 0 0
100 1 0 20.603079 3.691758 0 0 0 0
101 1 0 21.315 2.461172 0 0 0 0
102 1 0 22.734579 2.461172 0 0 0 0
103 1 0 23.4465 3.691758 0 0 0 0
104 1 0 24.866079000000003 3.691758 0 0 0 0
105 1 0 25.578 2.461172 0 0 0 0
106 1 0 26.997579000000005 2.461172 0 0 0 0
107 1 0 27.709500000000002 3.691758 0 0 0 0
108 1 0 29.129079000000004 3.691758 0 0 0 0
109 1 0 29.841 2.461172 0 0 0 0
110 1 0 31.260579000000003 2.461172 0 0 0 0
111 1 0 31.9725 3.691758 0 0 0 0
112 1 0 33.392079 3.691758 0 0 0 0
113 1 0 34.104 2.461172 0 0 0 0
114 1 0 35.523579000000005 2.461172 0 0 0 0
115 1 0 36.2355 3.691758 0 0 0 0
116 1 0 37.65507900000001 3.691758 0 0 0 0
117 1 0 38.367000000000004 2.461172 0 0 0 0
118 1 0 39.786579 2.461172 0 0 0 0
119 1 0 40.4985 3.691758 0 0 0 0
120 1 0 41.918079000000006 3.691758 0 0 0 0
121 1 0 42.63 2.461172 0 0 0 0
122 1 0 44.049579 2.461172 0 0 0 0
123 1 0 44.7615 3.691758 0 0 0 0
124 1 0 46.181079000000004 3.691758 0 0 0 0
125 1 0 46.893 2.461172 0 0 0 0
126 1 0 48.31257900000001 2.461172 0 0 0 0
127 1 0 49.0245 3.691758 0 0 0 0
128 1 0 50.444079 3.691758 0 0 0 0
129 1 0 51.156 2.461172 0 0 0 0
130 1 0 52.575579000000005 2.461172 0 0 0 0
131 1 0 53.2875 3.691758 0 0 0 0
132 1 0 54.70707900000001 3.691758 0 0 0 0
133 1 0 55.419000000000004 2.461172 0 0 0 0
134 1 0 56.838579 2.461172 0 0 0 0
135 1 0 57.5505 3.691758 0 0 0 0
136 1 0 58.970079000000005 3.691758 0 0 0 0
137 1 0 59.682 2.461172 0 0 0 0
138 1 0 61.10157900000001 2.461172 0 0 0 0
139 1 0 61.813500000000005 3.691758 0 0 0 0
140 1 0 63.233079000000004 3.691758 0 0 0 0
141 1 0 63.945 2.461172 0 0 0 0
142 1 0 65.364579 2.461172 0 0 0 0
143 1 0 66.0765 3.691758 0 0 0 0
144 1 0 67.49607900000001 3.691758 0 0 0 0
145 1 0 68.208 2.461172 0 0 0 0
146 1 0 69.627579 2.461172 0 0 0 0
147 1 0 70.3395 3.691758 0 0 0 0
148 1 0 71.759079 3.691758 0 0 0 0
149 1 0 72.471 2.461172 0 0 0 0
150 1 0 73.89057899999999 2.461172 0 0 0 0
151 1 0 74.6025 3.691758 0 0 0 0
152 1 0 76.02207899999999 3.691758 0 0 0 0
153 1 0 76.73400000000001 2.461172 0 0 0 0
154 1 0 78.153579 2.461172 0 0 0 0
155 1 0 78.8655 3.691758 0 0 0 0
156 1 0 80.285079 3.691758 0 0 0 0
157 1 0 80.997 2.461172 0 0 0 0
158 1 0 82.416579 2.461172 0 0 0 0
159 1 0 83.1285 3.691758 0 0 0 0
160 1 0 84.548079 3.691758 0 0 0 0
161 1 0 0 4.922344 0 0 0 0
162 1 0 1.4195790000000001 4.922344 0 0 0 0
163 1 0 2.1315 6.1529300000000005 0 0 0 0
164 1 0 3.5510789999999997 6.1529300000000005 0 0 0 0
165 1 0 4.263 4.922344 0 0 0 0
166 1 0 5.682579 4.922344 0 0 0 0
167 1 0 6.3945 6.1529300000000005 0 0 0 0
168 1 0 7.8140789999999996 6.1529300000000005 0 0 0 0
169 1 0 8.526 4.922344 0 0 0 0
170 1 0 9.945579 4.922344 0 0 0 0
171 1 0 10.6575 6.1529300000000005 0 0 0 0
172 1 0 12.077079000000001 6.1529300000000005 0 0 0 0
173 1 0 12.789 4.922344 0 0 0 0
174 1 0 14.208579000000002 4.922344 0 0 0 0
175 1 0 14.9205 6.1529300000000005 0 0 0 0
176 1 0 16.340079000000003 6.1529300000000005 0 0 0 0
177 1 0 17.052 4.922344 0 0 0 0
178 1 0 18.471579000000002 4.922344 0 0 0 0
179 1 0 19.183500000000002 6.1529300000000005 0 0 0 0
180 1 0 20.603079 6.1529300000000005 0 0 0 0
181 1 0 21.315 4.922344 0 0 0 0
182 1 0 22.734579 4.922344 0 0 0 0
183 1 0 23.4465 6.1529300000000005 0 0 0 0
184 1 0 24.866079000000003 6.1529300000000005 0 0 0 0
185 1 0 25.578 4.922344 0 0 0 0
186 1 0 26.997579000000005 4.922344 0 0 0 0
187 1 0 27.709500000000002 6.1529300000000005 0 0 0 0
188 1 0 29.129079000000004 6.1529300000000005 0 0 0 0
189 1 0 29.841 4.922344 0 0 0 0
190 1 0 31.260579000000003 4.922344 0 0 0 0
191 1 0 31.9725 6.1529300000000005 0 0 0 0
192 1 0 33.392079 6.1529300000000005 0 0 0 0
193 1 0 34.104 4.922344 0 0 0 0
194 1 0 35.523579000000005 4.922344 0 0 0 0
195 1 0 36.2355 6.1529300000000005 0 0 0 0
196 1 0 37.65507900000001 6.1529300000000005 0 0 0 0
197 1 0 38.367000000000004 4.922344 0 0 0 0
198 1 0 39.786579 4.922344 0 0 0 0
199 1 0 40.4985 6.1529300000000005 0 0 0 0
200 1 0 41.918079000000006 6.1529300000000005 0 0 0 0
201 1 0 42.63 4.922344 0 0 0 0
202 1 0 44.049579 4.922344 0 0 0 0
203 1 0 44.7615 6.1529300000000005 0 0 0 0
204 1 0 46.181079000000004 6.1529300000000005 0 0 0 0
205 1 0 46.893 4.922344 0 0 0 0
206 1 0 48.31257900000001 4.922344 0 0 0 0
207 1 0 49.0245 6.1529300000000005 0 0 0 0
208 1 0 50.444079 6.1529300000000005 0 0 0 0
209 1 0 51.156 4.922344 0 0 0 0
210 1 0 52.575579000000005 4.922344 0 0 0 0
211 1 0 53.2875 6.1529300000000005 0 0 0 0
212 1 0 54.70707900000001 6.1529300000000005 0 0 0 0
213 1 0 55.419000000000004 4.922344 0 0 0 0
214 1 0 56.838579 4.922344 0 0 0 0
215 1 0 57.5505 6.1529300000000005 0 0 0 0
216 1 0 58.970079000000005 6.1529300000000005 0 0 0 0
217 1 0 59.682 4.922344 0 0 0 0
218 1 0 61.10157900000001 4.922344 0 0 0 0
219 1 0 61.813500000000005 6.1529300000000005 0 0 0 0
220 1 0 63.233079000000004 6.1529300000000005 0 0 0 0
221 1 0 63.945 4.922344 0 0 0 0
222 1 0 65.364579 4.922344 0 0 0 0
223 1 0 66.0765 6.1529300000000005 0 0 0 0
224 1 0 67.49607900000001 6.1529300000000005 0 0 0 0
225 1 0 68.208 4.922344 0 0 0 0
226 1 0 69.627579 4.922344 0 0 0 0
227 1 0 70.3395 6.1529300000000005 0 0 0 0
228 1 0 71.759079 6.1529300000000005 0 0 0 0
229 1 0 72.471 4.922344 0 0 0 0
230 1 0 73.89057899999999 4.922344 0 0 0 0
231 1 0 74.6025 6.1529300000000005 0 0 0 0
232 1 0 76.02207899999999 6.1529300000000005 0 0 0 0
233 1 0 76.73400000000001 4.922344 0 0 0 0
234 1 0 78.153579 4.922344 0 0 0 0
235 1 0 78.8655 6.1529300000000005 0 0 0 0
236 1 0 80.285079 6.1529300000000005 0 0 0 0
237 1 0 80.997 4.922344 0 0 0 0
238 1 0 82.416579 4.922344 0 0 0 0
239 1 0 83.1285 6.1529300000000005 0 0 0 0
240 1 0 84.548079 6.1529300000000005 0 0 0 0
241 1 0 0 7.383516 0 0 0 0
242 1 0 1.4195790000000001 7.383516 0 0 0 0
243 1 0 2.1315 8.614102 0 0 0 0
244 1 0 3.5510789999999997 8.614102 0 0 0 0
245 1 0 4.263 7.383516 0 0 0 0
246 1 0 5.682579 7.383516 0 0 0 0
247 1 0 6.3945 8.614102 0 0 0 0
248 1 0 7.8140789999999996 8.614102 0 0 0 0
249 1 0 8.526 7.383516 0 0 0 0
250 1 0 9.945579 7.383516 0 0 0 0
251 1 0 10.6575 8.614102 0 0 0 0
252 1 0 12.077079000000001 8.614102 0 0 0 0
253 1 0 12.789 7.383516 0 0 0 0
254 1 0 14.208579000000002 7.383516 0 0 0 0
255 1 0 14.9205 8.614102 0 0 0 0
256 1 0 16.340079000000003 8.614102 0 0 0 0
257 1 0 17.052 7.383516 0 0 0 0
258 1 0 18.471579000000002 7.383516 0 0 0 0
259 1 0 19.183500000000002 8.614102 0 0 0 0
260 1 0 20.603079 8.614102 0 0 0 0
261 1 0 21.315 7.383516 0 0 0 0
262 1 0 22.734579 7.383516 0 0 0 0
263 1 0 23.4465 8.614102 0 0 0 0
264 1 0 24.866079000000003 8.614102 0 0 0 0
265 1 0 25.578 7.383516 0 0 0 0
266 1 0 26.997579000000005 7.383516 0 0 0 0
267 1 0 27.709500000000002 8.614102 0 0 0 0
268 1 0 29.129079000000004 8.614102 0 0 0 0
269 1 0 29.841 7.383516 0 0 0 0
270 1 0 31.260579000000003 7.383516 0 0 0 0
271 1 0 31.9725 8.614102 0 0 0 0
272 1 0 33.392079 8.614102 0 0 0 0
273 1 0 34.104 7.383516 0 0 0 0
274 1 0 35.523579000000005 7.383516 0 0 0 0
275 1 0 36.2355 8.614102 0 0 0 0
276 1 0 37.65507900000001 8.614102 0 0 0 0
277 1 0 38.367000000000004 7.383516 0 0 0 0
278 1 0 39.786579 7.383516 0 0 0 0
279 1 0 40.4985 8.614102 0 0 0 0
280 1 0 41.918079000000006 8.614102 0 0 0 0
281 1 0 42.63 7.383516 0 0 0 0
282 1 0 44.049579 7.383516 0 0 0 0
283 1 0 44.7615 8.614102 0 0 0 0
284 1 0 46.181079000000004 8.614102 0 0 0 0
285 1 0 46.893 7.383516 0 0 0 0
286 1 0 48.31257900000001 7.383516 0 0 0 0
287 1 0 49.0245 8.614102 0 0 0 0
288 1 0 50.444079 8.614102 0 0 0 0
289 1 0 51.156 7.383516 0 0 0 0
290 1 0 52.575579000000005 7.383516 0 0 0 0
291 1 0 53.2875 8.614102 0 0 0 0
292 1 0 54.70707900000001 8.614102 0 0 0 0
293 1 0 55.419000000000004 7.383516 0 0 0 0
294 1 0 56.838579 7.383516 0 0 0 0
295 1 0 57.5505 8.614102 0 0 0 0
296 1 0 58.970079000000005 8.614102 0 0 0 0
297 1 0 59.682 7.383516 0 0 0 0
298 1 0 61.10157900000001 7.383516 0 0 0 0
299 1 0 61.813500000000005 8.614102 0 0 0 0
300 1 0 63.233079000000004 8.614102 0 0 0 0
301 1 0 63.945 7.383516 0 0 0 0
302 1 0 65.364579 7.383516 0 0 0 0
303 1 0 66.0765 8.614102 0 0 0 0
304 1 0 67.49607900000001 8.614102 0 0 0 0
305 1 0 68.208 7.383516 0 0 0 0
306 1 0 69.627579 7.383516 0 0 0 0
307 1 0 70.3395 8.614102 0 0 0 0
308 1 0 71.759079 8.614102 0 0 0 0
309 1 0 72.471 7.383516 0 0 0 0
310 1 0 73.89057899999999 7.383516 0 0 0 0
311 1 0 74.6025 8.614102 0 0 0 0
312 1 0 76.02207899999999 8.614102 0 0 0 0
313 1 0 76.73400000000001 7.383516 0 0 0 0
314 1 0 78.153579 7.383516 0 0 0 0
315 1 0 78.8655 8.614102 0 0 0 0
316 1 0 80.285079 8.614102 0 0 0 0
317 1 0 80.997 7.383516 0 0 0 0
318 1 0 82.416579 7.383516 0 0 0 0
319 1 0 83.1285 8.614102 0 0 0 0
320 1 0 84.548079 8.614102 0 0 0 0
321 1 0 0 9.844688 0 0 0 0
322 1 0 1.4195790000000001 9.844688 0 0 0 0
323 1 0 2.1315 11.075274 0 0 0 0
324 1 0 3.5510789999999997 11.075274 0 0 0 0
325 1 0 4.263 9.844688 0 0 0 0
326 1 0 5.682579 9.844688 0 0 0 0
327 1 0 6.3945 11.075274 0 0 0 0
328 1 0 7.8140789999999996 11.075274 0 0 0 0
329 1 0 8.526 9.844688 0 0 0 0
330 1 0 9.945579 9.844688 0 0 0 0
331 1 0 10.6575 11.075274 0 0 0 0
332 1 0 12.077079000000001 11.075274 0 0 0 0
333 1 0 12.789 9.844688 0 0 0 0
334 1 0 14.208579000000002 9.844688 0 0 0 0
335 1 0 14.9205 11.075274 0 0 0 0
336 1 0 16.340079000000003 11.075274 0 0 0 0
337 1 0 17.052 9.844688 0 0 0 0
338 1 0 18.471579000000002 9.844688 0 0 0 0
339 1 0 19.183500000000002 11.075274 0 0 0 0
340 1 0 20.603079 11.075274 0 0 0 0
341 1 0 21.315 9.844688 0 0 0 0
342 1 0 22.734579 9.844688 0 0 0 0
343 1 0 23.4465 11.075274 0 0 0 0
344 1 0 24.866079000000003 11.075274 0 0 0 0
345 1 0 25.578 9.844688 0 0 0 0
346 1 0 26.997579000000005 9.844688 0 0 0 0
347 1 0 27.709500000000002 11.075274 0 0 0 0
348 1 0 29.129079000000004 11.075274 0 0 0 0
349 1 0 29.841 9.844688 0 0 0 0
350 1 0 31.260579000000003 9.844688 0 0 0 0
351 1 0 31.9725 11.075274 0 0 0 0
352 1 0 33.392079 11.075274 0 0 0 0
353 1 0 34.104 9.844688 0 0 0 0
354 1 0 35.523579000000005 9.844688 0 0 0 0
355 1 0 36.2355 11.075274 0 0 0 0
356 1 0 37.65507900000001 11.075274 0 0 0 0
357 1 0 38.367000000000004 9.844688 0 0 0 0
358 1 0 39.786579 9.844688 0 0 0 0
359 1 0 40.4985 11.075274 0 0 0 0
360 1 0 41.918079000000006 11.075274 0 0 0 0
361 1 0 42.63 9.844688 0 0 0 0
362 1 0 44.049579 9.844688 0 0 0 0
363 1 0 44.7615 11.075274 0 0 0 0
364 1 0 46.181079000000004 11.075274 0 0 0 0
365 1 0 46.893 9.844688 0 0 0 0
366 1 0 48.31257900000001 9.844688 0 0 0 0
367 1 0 49.0245 11.075274 0 0 0 0
368 1 0 50.444079 11.075274 0 0 0 0
369 1 0 51.156 9.844688 0 0 0 0
370 1 0 52.575579000000005 9.844688 0 0 0 0
371 1 0 53.2875 11.075274 0 0 0 0
372 1 0 54.70707900000001 11.075274 0 0 0 0
373 1 0 55.419000000000004 9.844688 0 0 0 0
374 1 0 56.838579 9.844688 0 0 0 0
375 1 0 57.5505 11.075274 0 0 0 0
376 1 0 58.970079000000005 11.075274 0 0 0 0
377 1 0 59.682 9.844688 0 0 0 0
378 1 0 61.10157900000001 9.844688 0 0 0 0
379 1 0 61.813500000000005 11.075274 0 0 0 0
380 1 0 63.233079000000004 11.075274 0 0 0 0
381 1 0 63.945 9.844688 0 0 0 0
382 1 0 65.364579 9.844688 0 0 0 0
383 1 0 66.0765 11.075274 0 0 0 0
384 1 0 67.49607900000001 11.075274 0 0 0 0
385 1 0 68.208 9.844688 0 0 0 0
386 1 0 69.627579 9.844688 0 0 0 0
387 1 0 70.3395 11.075274 0 0 0 0
388 1 0 71.759079 11.075274 0 0 0 0
389 1 0 72.471 9.844688 0 0 0 0
390 1 0 73.89057899999999 9.844688 0 0 0 0
391 1 0 74.6025 11.075274 0 0 0 0
392 1 0 76.02207899999999 11.075274 0 0 0 0
393 1 0 76.73400000000001 9.844688 0 0 0 0
394 1 0 78.153579 9.844688 0 0 0 0
395 1 0 78.8655 11.075274 0 0 0 0
396 1 0 80.285079 11.075274 0 0 0 0
397 1 0 80.997 9.844688 0 0 0 0
398 1 0 82.416579 9.844688 0 0 0 0
399 1 0 83.1285 11.075274 0 0 0 0
400 1 0 84.548079 11.075274 0 0 0 0
401 1 0 0 12.305860000000001 0 0 0 0
402 1 0 1.4195790000000001 12.305860000000001 0 0 0 0
403 1 0 2.1315 13.536446 0 0 0 0
404 1 0 3.5510789999999997 13.536446 0 0 0 0
405 1 0 4.263 12.305860000000001 0 0 0 0
406 1 0 5.682579 12.305860000000001 0 0 0 0
407 1 0 6.3945 13.536446 0 0 0 0
408 1 0 7.8140789999999996 13.536446 0 0 0 0
409 1 0 8.526 12.305860000000001 0 0 0 0
410 1 0 9.945579 12.305860000000001 0 0 0 0
411 1 0 10.6575 13.536446 0 0 0 0
412 1 0 12.077079000000001 13.536446 0 0 0 0
413 1 0 12.789 12.305860000000001 0 0 0 0
414 1 0 14.208579000000002 12.305860000000001 0 0 0 0
415 1 0 14.9205 13.536446 0 0 0 0
416 1 0 16.340079000000003 13.536446 0 0 0 0
417 1 0 17.052 12.305860000000001 0 0 0 0
418 1 0 18.471579000000002 12.305860000000001 0 0 0 0
419 1 0 19.183500000000002 13.536446 0 0 0 0
420 1 0 20.603079 13.536446 0 0 0 0
421 1 0 21.315 12.305860000000001 0 0 0 0
422 1 0 22.734579 12.305860000000001 0 0 0 0
423 1 0 23.4465 13.536446 0 0 0 0
424 1 0 24.866079000000003 13.536446 0 0 0 0
425 1 0 25.578 12.305860000000001 0 0 0 0
426 1 0 26.997579000000005 12.305860000000001 0 0 0 0
427 1 0 27.709500000000002 13.536446 0 0 0 0
428 1 0 29.129079000000004 13.536446 0 0 0 0
429 1 0 29.841 12.305860000000001 0 0 0 0
430 1 0 31.260579000000003 12.305860000000001 0 0 0 0
431 1 0 31.9725 13.536446 0 0 0 0
432 1 0 33.392079 13.536446 0 0 0 0
433 1 0 34.104 12.305860000000001 0 0 0 0
434 1 0 35.523579000000005 12.305860000000001 0 0 0 0
435 1 0 36.2355 13.536446 0 0 0 0
436 1 0 37.65507900000001 13.536446 0 0 0 0
437 1 0 38.367000000000004 12.305860000000001 0 0 0 0
438 1 0 39.786579 12.305860000000001 0 0 0 0
439 1 0 40.4985 13.536446 0 0 0 0
440 1 0 41.918079000000006 13.536446 0 0 0 0
441 1 0 42.63 12.305860000000001 0 0 0 0
442 1 0 44.049579 12.305860000000001 0 0 0 0
443 1 0 44.7615 13.536446 0 0 0 0
444 1 0 46.181079000000004 13.536446 0 0 0 0
445 1 0 46.893 12.305860000000001 0 0 0 0
446 1 0 48.31257900000001 12.305860000000001 0 0 0 0
447 1 0 49.0245 13.536446 0 0 0 0
448 1 0 50.444079 13.536446 0 0 0 0
449 1 0 51.156 12.305860000000001 0 0 0 0
450 1 0 52.575579000000005 12.305860000000001 0 0 0 0
451 1 0 53.2875 13.536446 0 0 0 0
452 1 0 54.70707900000001 13.536446 0 0 0 0
453 1 0 55.419000000000004 12.305860000000001 0 0 0 0
454 1 0 56.838579 12.305860000000001 0 0 0 0
455 1 0 57.5505 13.536446 0 0 0 0
456 1 0 58.970079000000005 13.536446 0 0 0 0
457 1 0 59.682 12.305860000000001 0 0 0 0
458 1 0 61.10157900000001 12.305860000000001 0 0 0 0
459 1 0 61.813500000000005 13.536446 0 0 0 0
460 1 0 63.233079000000004 13.536446 0 0 0 0
461 1 0 63.945 12.305860000000001 0 0 0 0
462 1 0 65.364579 12.305860000000001 0 0 0 0
463 1 0 66.0765 13.536446 0 0 0 0
464 1 0 67.49607900000001 13.536446 0 0 0 0
465 1 0 68.208 12.305860000000001 0 0 0 0
466 1 0 69.627579 12.305860000000001 0 0 0 0
467 1 0 70.3395 13.536446 0 0 0 0
468 1 0 71.759079 13.536446 0 0 0 0
469 1 0 72.471 12.305860000000001 0 0 0 0
470 1 0 73.89057899999999 12.305860000000001 0 0 0 0
471 1 0 74.6025 13.536446 0 0 0 0
472 1 0 76.02207899999999 13.536446 0 0 0 0
473 1 0 76.73400000000001 12.305860000000001 0 0 0 0
474 1 0 78.153579 12.305860000000001 0 0 0 0
475 1 0 78.8655 13.536446 0 0 0 0
476 1 0 80.285079 13.536446 0 0 0 0
477 1 0 80.997 12.305860000000001 0 0 0 0
478 1 0 82.416579 12.305860000000001 0 0 0 0
479 1 0 83.1285 13.536446 0 0 0 0
480 1 0 84.548079 13.536446 0 0 0 0
481 1 0 0 14.767032 0 0 0 0
482 1 0 1.4195790000000001 14.767032 0 0 0 0
483 1 0 2.1315 15.997618 0 0 0 0
484 1 0 3.5510789999999997 15.997618 0 0 0 0
485 1 0 4.263 14.767032 0 0 0 0
486 1 0 5.682579 14.767032 0 0 0 0
487 1 0 6.3945 15.997618 0 0 0 0
488 1 0 7.8140789999999996 15.997618 0 0 0 0
489 1 0 8.526 14.767032 0 0 0 0
490 1 0 9.945579 14.767032 0 0 0 0
491 1 0 10.6575 15.997618 0 0 0 0
492 1 0 12.077079000000001 15.997618 0 0 0 0
493 1 0 12.789 14.767032 0 0 0 0
494 1 0 14.208579000000002 14.767032 0 0 0 0
495 1 0 14.9205 15.997618 0 0 0 0
496 1 0 16.340079000000003 15.997618 0 0 0 0
497 1 0 17.052 14.767032 0 0 0 0
498 1 0 18.471579000000002 14.767032 0 0 0 0
499 1 0 19.183500000000002 15.997618 0 0 0 0
500 1 0 20.603079 15.997618 0 0 0 0
501 1 0 21.315 14.767032 0 0 0 0
502 1 0 22.734579 14.767032 0 0 0 0
503 1 0 23.4465 15.997618 0 0 0 0
504 1 0 24.866079000000003 15.997618 0 0 0 0
505 1 0 25.578 14.767032 0 0 0 0
506 1 0 26.997579000000005 14.767032 0 0 0 0
507 1 0 27.709500000000002 15.997618 0 0 0 0
508 1 0 29.129079000000004 15.997618 0 0 0 0
509 1 0 29.841 14.767032 0 0 0 0
510 1 0 31.260579000000003 14.767032 0 0 0 0
511 1 0 31.9725 15.997618 0 0 0 0
512 1 0 33.392079 15.997618 0 0 0 0
513 1 0 34.104 14.767032 0 0 0 0
514 1 0 35.523579000000005 14.767032 0 0 0 0
515 1 0 36.2355 15.997618 0 0 0 0
516 1 0 37.65507900000001 15.997618 0 0 0 0
517 1 0 38.367000000000004 14.767032 0 0 0 0
518 1 0 39.786579 14.767032 0 0 0 0
519 1 0 40.4985 15.997618 0 0 0 0
520 1 0 41.918079000000006 15.997618 0 0 0 0
521 1 0 42.63 14.767032 0 0 0 0
522 1 0 44.049579 14.767032 0 0 0 0
523 1 0 44.7615 15.997618 0 0 0 0
524 1 0 46.181079000000004 15.997618 0 0 0 0
525 1 0 46.893 14.767032 0 0 0 0
526 1 0 48.31257900000001 14.767032 0 0 0 0
527 1 0 49.0245 15.997618 0 0 0 0
528 1 0 50.444079 15.997618 0 0 0 0
529 1 0 51.156 14.767032 0 0 0 0
530 1 0 52.575579000000005 14.767032 0 0 0 0
531 1 0 53.2875 15.997618 0 0 0 0
532 1 0 54.70707900000001 15.997618 0 0 0 0
533 1 0 55.419000000000004 14.767032 0 0 0 0
534 1 0 56.838579 14.767032 0 0 0 0
535 1 0 57.5505 15.997618 0 0 0 0
536 1 0 58.970079000000005 15.997618 0 0 0 0
537 1 0 59.682 14.767032 0 0 0 0
538 1 0 61.10157900000001 14.767032 0 0 0 0
539 1 0 61.813500000000005 15.997618 0 0 0 0
540 1 0 63.233079000000004 15.997618 0 0 0 0
541 1 0 63.945 14.767032 0 0 0 0
542 1 0 65.364579 14.767032 0 0 0 0
543 1 0 66.0765 15.997618 0 0 0 0
544 1 0 67.49607900000001 15.997618 0 0 0 0
545 1 0 68.208 14.767032 0 0 0 0
546 1 0 69.627579 14.767032 0 0 0 0
547 1 0 70.3395 15.997618 0 0 0 0
548 1 0 71.759079 15.997618 0 0 0 0
549 1 0 72.471 14.767032 0 0 0 0
550 1 0 73.89057899999999 14.767032 0 0 0 0
551 1 0 74.6025 15.997618 0 0 0 0
552 1 0 76.02207899999999 15.997618 0 0 0 0
553 1 0 76.73400000000001 14.767032 0 0 0 0
554 1 0 78.153579 14.767032 0 0 0 0
555 1 0 78.8655 15.997618 0 0 0 0
556 1 0 80.285079 15.997618 0 0 0 0
557 1 0 80.997 14.767032 0 0 0 0
558 1 0 82.416579 14.767032 0 0 0 0
559 1 0 83.1285 15.997618 0 0 0 0
560 1 0 84.548079 15.997618 0 0 0 0
561 1 0 0 17.228204 0 0 0 0
562 1 0 1.4195790000000001 17.228204 0 0 0 0
563 1 0 2.1315 18.45879 0 0 0 0
564 1 0 3.5510789999999997 18.45879 0 0 0 0
565 1 0 4.263 17.228204 0 0 0 0
566 1 0 5.682579 17.228204 0 0 0 0
567 1 0 6.3945 18.45879 0 0 0 0
568 1 0 7.8140789999999996 18.45879 0 0 0 0
569 1 0 8.526 17.228204 0 0 0 0
570 1 0 9.945579 17.228204 0 0 0 0
571 1 0 10.6575 18.45879 0 0 0 0
572 1 0 12.077079000000001 18.45879 0 0 0 0
573 1 0 12.789 17.228204 0 0 0 0
574 1 0 14.208579000000002 17.228204 0 0 0 0
575 1 0 14.9205 18.45879 0 0 0 0
576 1 0 16.340079000000003 18.45879 0 0 0 0
577 1 0 17.052 17.228204 0 0 0 0
578 1 0 18.471579000000002 17.228204 0 0 0 0
579 1 0 19.183500000000002 18.45879 0 0 0 0
580 1 0 20.603079 18.45879 0 0 0 0
581 1 0 21.315 17.228204 0 0 0 0
582 1 0 22.734579 17.228204 0 0 0 0
583 1 0 23.4465 18.45879 0 0 0 0
584 1 0 24.866079000000003 18.45879 0 0 0 0
585 1 0 25.578 17.228204 0 0 0 0
586 1 0 26.997579000000005 17.228204 0 0 0 0
587 1 0 27.709500000000002 18.45879 0 0 0 0
588 1 0 29.129079000000004 18.45879 0 0 0 0
589 1 0 29.841 17.228204 0 0 0 0
590 1 0 31.260579000000003 17.228204 0 0 0 0
591 1 0 31.9725 18.45879 0 0 0 0
592 1 0 33.392079 18.45879 0 0 0 0
593 1 0 34.104 17.228204 0 0 0 0
594 1 0 35.523579000000005 17.228204 0 0 0 0
595 1 0 36.2355 18.45879 0 0 0 0
596 1 0 37.65507900000001 18.45879 0 0 0 0
597 1 0 38.367000000000004 17.228204 0 0 0 0
598 1 0 39.786579 17.228204 0 0 0 0
599 1 0 40.4985 18.45879 0 0 0 0
600 1 0 41.918079000000006 18.45879 0 0 0 0
601 1 0 42.63 17.228204 0 0 0 0
602 1 0 44.049579 17.228204 0 0 0 0
603 1 0 44.7615 18.45879 0 0 0 0
604 1 0 46.181079000000004 18.45879 0 0 0 0
605 1 0 46.893 17.228204 0 0 0 0
606 1 0 48.31257900000001 17.228204 0 0 0 0
607 1 0 49.0245 18.45879 0 0 0 0
608 1 0 50.444079 18.45879 0 0 0 0
609 1 0 51.156 17.228204 0 0 0 0
610 1 0 52.575579000000005 17.228204 0 0 0 0
611 1 0 53.2875 18.45879 0 0 0 0
612 1 0 54.70707900000001 18.45879 0 0 0 0
613 1 0 55.419000000000004 17.228204 0 0 0 0
614 1 0 56.838579 17.228204 0 0 0 0
615 1 0 57.5505 18.45879 0 0 0 0
616 1 0 58.970079000000005 18.45879 0 0 0 0
617 1 0 59.682 17.228204 0 0 0 0
618 1 0 61.10157900000001 17.228204 0 0 0 0
619 1 0 61.813500000000005 18.45879 0 0 0 0
620 1 0 63.233079000000004 18.45879 0 0 0 0
621 1 0 63.945 17.228204 0 0 0 0
622 1 0 65.364579 17.228204 0 0 0 0
623 1 0 66.0765 18.45879 0 0 0 0
624 1 0 67.49607900000001 18.45879 0 0 0 0
625 1 0 68.208 17.228204 0 0 0 0
626 1 0 69.627579 17.228204 0 0 0 0
627 1 0 70.3395 18.45879 0 0 0 0
628 1 0 71.759079 18.45879 0 0 0 0
629 1 0 72.471 17.228204 0 0 0 0
630 1 0 73.89057899999999 17.228204 0 0 0 0
631 1 0 74.6025 18.45879 0 0 0 0
632 1 0 76.02207899999999 18.45879 0 0 0 0
633 1 0 76.73400000000001 17.228204 0 0 0 0
634 1 0 78.153579 17.228204 0 0 0 0
635 1 0 78.8655 18.45879 0 0 0 0
636 1 0 80.285079 18.45879 0 0 0 0
637 1 0 80.997 17.228204 0 0 0 0
638 1 0 82.416579 17.228204 0 0 0 0
639 1 0 83.1285 18.45879 0 0 0 0
640 1 0 84.548079 18.45879 0 0 0 0
641 1 0 0 19.689376 0 0 0 0
642 1 0 1.4195790000000001 19.689376 0 0 0 0
643 1 0 2.1315 20.919961999999998 0 0 0 0
644 1 0 3.5510789999999997 20.919961999999998 0 0 0 0
645 1 0 4.263 19.689376 0 0 0 0
646 1 0 5.682579 19.689376 0 0 0 0
647 1 0 6.3945 20.919961999999998 0 0 0 0
648 1 0 7.8140789999999996 20.919961999999998 0 0 0 0
649 1 0 8.526 19.689376 0 0 0 0
650 1 0 9.945579 19.689376 0 0 0 0
651 1 0 10.6575 20.919961999999998 0 0 0 0
652 1 0 12.077079000000001 20.919961999999998 0 0 0 0
653 1 0 12.789 19.689376 0 0 0 0
654 1 0 14.208579000000002 19.689376 0 0 0 0
655 1 0 14.9205 20.919961999999998 0 0 0 0
656 1 0 16.340079000000003 20.919961999999998 0 0 0 0
657 1 0 17.052 19.689376 0 0 0 0
658 1 0 18.471579000000002 19.689376 0 0 0 0
659 1 0 19.183500000000002 20.919961999999998 0 0 0 0
660 1 0 20.603079 20.919961999999998 0 0 0 0
661 1 0 21.315 19.689376 0 0 0 0
662 1 0 22.734579 19.689376 0 0 0 0
663 1 0 23.4465 20.919961999999998 0 0 0 0
664 1 0 24.866079000000003 20.919961999999998 0 0 0 0
665 1 0 25.578 19.689376 0 0 0 0
666 1 0 26.997579000000005 19.689376 0 0 0 0
667 1 0 27.709500000000002 20.919961999999998 0 0 0 0
668 1 0 29.129079000000004 20.919961999999998 0 0 0 0
669 1 0 29.841 19.689376 0 0 0 0
670 1 0 31.260579000000003 19.689376 0 0 0 0
671 1 0 31.9725 20.919961999999998 0 0 0 0
672 1 0 33.392079 20.919961999999998 0 0 0 0
673 1 0 34.104 19.689376 0 0 0 0
674 1 0 35.523579000000005 19.689376 0 0 0 0
675 1 0 36.2355 20.919961999999998 0 0 0 0
676 1 0 37.65507900000001 20.919961999999998 0 0 0 0
677 1 0 38.367000000000004 19.689376 0 0 0 0
678 1 0 39.786579 19.689376 0 0 0 0
679 1 0 40.4985 20.919961999999998 0 0 0 0
680 1 0 41.918079000000006 20.919961999999998 0 0 0 0
681 1 0 42.63 19.689376 0 0 0 0
682 1 0 44.049579 19.689376 0 0 0 0
683 1 0 44.7615 20.919961999999998 0 0 0 0
684 1 0 46.181079000000004 20.919961999999998 0 0 0 0
685 1 0 46.893 19.689376 0 0 0 0
686 1 0 48.31257900000001 19.689376 0 0 0 0
687 1 0 49.0245 20.919961999999998 0 0 0 0
688 1 0 50.444079 20.919961999999998 0 0 0 0
689 1 0 51.156 19.689376 0 0 0 0
690 1 0 52.575579000000005 19.689376 0 0 0 0
691 1 0 53.2875 20.919961999999998 0 0 0 0
692 1 0 54.70707900000001 20.919961999999998 0 0 0 0
693 1 0 55.419000000000004 19.689376 0 0 0 0
694 1 0 56.838579 19.689376 0 0 0 0
695 1 0 57.5505 20.919961999999998 0 0 0 0
696 1 0 58.970079000000005 20.919961999999998 0 0 0 0
697 1 0 59.682 19.689376 0 0 0 0
698 1 0 61.10157900000001 19.689376 0 0 0 0
699 1 0 61.813500000000005 20.919961999999998 0 0 0 0
700 1 0 63.233079000000004 20.919961999999998 0 0 0 0
701 1 0 63.945 19.689376 0 0 0 0
702 1 0 65.364579 19.689376 0 0 0 0
703 1 0 66.0765 20.919961999999998 0 0 0 0
704 1 0 67.49607900000001 20.919961999999998 0 0 0 0
705 1 0 68.208 19.689376 0 0 0 0
706 1 0 69.627579 19.689376 0 0 0 0
707 1 0 70.3395 20.919961999999998 0 0 0 0
708 1 0 71.759079 20.919961999999998 0 0 0 0
709 1 0 72.471 19.689376 0 0 0 0
710 1 0 73.89057899999999 19.689376 0 0 0 0
711 1 0 74.6025 20.919961999999998 0 0 0 0
712 1 0 76.02207899999999 20.919961999999998 0 0 0 0
713 1 0 76.73400000000001 19.689376 0 0 0 0
714 1 0 78.153579 19.689376 0 0 0 0
715 1 0 78.8655 20.919961999999998 0 0 0 0
716 1 0 80.285079 20.919961999999998 0 0 0 0
717 1 0 80.997 19.689376 0 0 0 0
718 1 0 82.416579 19.689376 0 0 0 0
719 1 0 83.1285 20.919961999999998 0 0 0 0
720 1 0 84.548079 20.919961999999998 0 0 0 0
721 1 0 0 22.150548 0 0 0 0
722 1 0 1.4195790000000001 22.150548 0 0 0 0
723 1 0 2.1315 23.381134000000003 0 0 0 0
724 1 0 3.5510789999999997 23.381134000000003 0 0 0 0
725 1 0 4.263 22.150548 0 0 0 0
726 1 0 5.682579 22.150548 0 0 0 0
727 1 0 6.3945 23.381134000000003 0 0 0 0
728 1 0 7.8140789999999996 23.381134000000003 0 0 0 0
729 1 0 8.526 22.150548 0 0 0 0
730 1 0 9.945579 22.150548 0 0 0 0
731 1 0 10.6575 23.381134000000003 0 0 0 0
732 1 0 12.077079000000001 23.381134000000003 0 0 0 0
733 1 0 12.789 22.150548 0 0 0 0
734 1 0 14.208579000000002 22.150548 0 0 0 0
735 1 0 14.9205 23.381134000000003 0 0 0 0
736 1 0 16.340079000000003 23.381134000000003 0 0 0 0
737 1 0 17.052 22.150548 0 0 0 0
738 1 0 18.471579000000002 22.150548 0 0 0 0
739 1 0 19.183500000000002 23.381134000000003 0 0 0 0
740 1 0 20.603079 23.381134000000003 0 0 0 0
741 1 0 21.315 22.150548 0 0 0 0
742 1 0 22.734579 22.150548 0 0 0 0
743 1 0 23.4465 23.381134000000003 0 0 0 0
744 1 0 24.866079000000003 23.381134000000003 0 0 0 0
745 1 0 25.578 22.150548 0 0 0 0
746 1 0 26.997579000000005 22.150548 0 0 0 0
747 1 0 27.709500000000002 23.381134000000003 0 0 0 0
748 1 0 29.129079000000004 23.381134000000003 0 0 0 0
749 1 0 29.841 22.150548 0 0 0 0
750 1 0 31.260579000000003 22.150548 0 0 0 0
751 1 0 31.9725 23.381134000000003 0 0 0 0
752 1 0 33.392079 23.381134000000003 0 0 0 0
753 1 0 34.104 22.150548 0 0 0 0
754 1 0 35.523579000000005 22.150548 0 0 0 0
755 1 0 36.2355 23.381134000000003 0 0 0 0
756 1 0 37.65507900000001 23.381134000000003 0 0 0 0
757 1 0 38.367000000000004 22.150548 0 0 0 0
758 1 0 39.786579 22.150548 0 0 0 0
759 1 0 40.4985 23.381134000000003 0 0 0 0
760 1 0 41.918079000000006 23.381134000000003 0 0 0 0
761 1 0 42.63 22.150548 0 0 0 0
762 1 0 44.049579 22.150548 0 0 0 0
763 1 0 44.7615 23.381134000000003 0 0 0 0
764 1 0 46.181079000000004 23.381134000000003 0 0 0 0
765 1 0 46.893 22.150548 0 0 0 0
766 1 0 48.31257900000001 22.150548 0 0 0 0
767 1 0 49.0245 23.381134000000003 0 0 0 0