LAMMPS (2 Aug 2023 - Update 3)
OMP_NUM_THREADS environment is not set. Defaulting to 1 thread. (src/comm.cpp:98)
  using 1 OpenMP thread(s) per MPI task
# UNITS
units real
timestep 1
variable fpress equal 0.000101325        # atm -> GPa
variable fenergy equal 0.043             # kcal/mole -> eV

# GRAPHENE SHEET
dimension 3
boundary p p f
atom_style charge
read_data graphene.dat
Reading data file ...
  orthogonal box = (0 0 -16.746485) to (85.26 49.22344 16.746485)
  1 by 1 by 1 MPI processor grid
  reading atoms ...
  1600 atoms
  reading velocities ...
  1600 velocities
  read_data CPU = 0.012 seconds
pair_style reax/c NULL checkqeq no
pair_coeff * * ffield.reax.cho C
Reading potential file ffield.reax.cho with DATE: 2011-02-18

# TEMPERATURE SETTINGS
variable temp equal 300
variable seed equal 1717
velocity all create ${temp} ${seed} dist uniform
velocity all create 300 ${seed} dist uniform
velocity all create 300 1717 dist uniform

# EQUILIBRATION
fix fnpt all npt temp ${temp} ${temp} 10 x 0 0 500 y 0 0 500
fix fnpt all npt temp 300 ${temp} 10 x 0 0 500 y 0 0 500
fix fnpt all npt temp 300 300 10 x 0 0 500 y 0 0 500
thermo 100
run 1000

CITE-CITE-CITE-CITE-CITE-CITE-CITE-CITE-CITE-CITE-CITE-CITE-CITE

Your simulation uses code contributions which should be cited:

- pair reaxff command: doi:10.1016/j.parco.2011.08.005

@Article{Aktulga12,
 author = {H. M. Aktulga and J. C. Fogarty and S. A. Pandit and A. Y. Grama},
 title = {Parallel Reactive Molecular Dynamics: {N}umerical Methods and Algorithmic Techniques},
 journal = {Parallel Computing},
 year =    2012,
 volume =  38,
 number =  {4--5},
 pages =   {245--259}
}

CITE-CITE-CITE-CITE-CITE-CITE-CITE-CITE-CITE-CITE-CITE-CITE-CITE

Neighbor list info ...
  update: every = 1 steps, delay = 0 steps, check = yes
  max neighbors/atom: 2000, page size: 100000
  master list distance cutoff = 12
  ghost atom cutoff = 12
  binsize = 6, bins = 15 9 6
  1 neighbor lists, perpetual/occasional/extra = 1 0 0
  (1) pair reax/c, perpetual
      attributes: half, newton off, ghost
      pair build: half/bin/newtoff/ghost
      stencil: full/ghost/bin/3d
      bin: standard
Per MPI rank memory allocation (min/avg/max) = 45.12 | 45.12 | 45.12 Mbytes
   Step          Temp          E_pair         E_mol          TotEng         Press          Volume    
         0   300           -301007.44      0             -299577.55      173841.79      140562.98    
       100   285.05258     -314755.42      0             -313396.77      1966.1982      145141.79    
       200   304.33295     -314818.35      0             -313367.8       864.10658      145146.38    
       300   312.01399     -314815.53      0             -313328.37     -766.70779      145151.28    
       400   300.72565     -314765.84      0             -313332.49     -155.22998      145168.1     
       500   310.09035     -314841.09      0             -313363.1       390.9198       145118.46    
       600   303.0825      -314825.84      0             -313381.25     -826.73949      145179.45    
       700   305.90311     -314786.67      0             -313328.64     -1820.978       145165.69    
       800   302.18697     -314799.74      0             -313359.42      2402.0504      145112       
       900   307.30905     -314769.15      0             -313304.42     -1074.7216      145178.38    
      1000   307.78871     -314826.4       0             -313359.39     -1100.9798      145160.02    
Loop time of 43.6483 on 1 procs for 1000 steps with 1600 atoms

Performance: 1.979 ns/day, 12.125 hours/ns, 22.910 timesteps/s, 36.657 katom-step/s
100.0% CPU use with 1 MPI tasks x 1 OpenMP threads

MPI task timing breakdown:
Section |  min time  |  avg time  |  max time  |%varavg| %total
---------------------------------------------------------------
Pair    | 43.534     | 43.534     | 43.534     |   0.0 | 99.74
Neigh   | 0.013304   | 0.013304   | 0.013304   |   0.0 |  0.03
Comm    | 0.0081257  | 0.0081257  | 0.0081257  |   0.0 |  0.02
Output  | 0.00030958 | 0.00030958 | 0.00030958 |   0.0 |  0.00
Modify  | 0.081626   | 0.081626   | 0.081626   |   0.0 |  0.19
Other   |            | 0.01074    |            |       |  0.02

Nlocal:           1600 ave        1600 max        1600 min
Histogram: 1 0 0 0 0 0 0 0 0 0
Nghost:           1409 ave        1409 max        1409 min
Histogram: 1 0 0 0 0 0 0 0 0 0
Neighs:         155591 ave      155591 max      155591 min
Histogram: 1 0 0 0 0 0 0 0 0 0

Total # of neighbors = 155591
Ave neighs/atom = 97.244375
Neighbor list builds = 3
Dangerous builds = 0

# OUTPUT
# assume that the thickness of monolayer graphene is 3.35A.
variable tmp equal lx
variable lx0 equal ${tmp}
variable lx0 equal 86.6453620717631
variable tmp equal ly
variable ly0 equal ${tmp}
variable ly0 equal 50.0205019194627
variable Eavg equal etotal/atoms*${fenergy}                # eV/atom
variable Eavg equal etotal/atoms*0.043                
variable pe equal pe/atoms*${fenergy}                      # eV/atom
variable pe equal pe/atoms*0.043                      
variable ke equal ke/atoms*${fenergy}                      # eV/atom
variable ke equal ke/atoms*0.043                      
variable strainx equal (lx-${lx0})/${lx0}
variable strainx equal (lx-86.6453620717631)/${lx0}
variable strainx equal (lx-86.6453620717631)/86.6453620717631
variable strainy equal (ly-${ly0})/${ly0}
variable strainy equal (ly-50.0205019194627)/${ly0}
variable strainy equal (ly-50.0205019194627)/50.0205019194627
variable stressx equal -pxx*(lz/3.35)*${fpress}            # GPa
variable stressx equal -pxx*(lz/3.35)*0.000101325            
variable stressy equal -pyy*(lz/3.35)*${fpress}            # GPa
variable stressy equal -pyy*(lz/3.35)*0.000101325            
thermo_style custom step time temp etotal press v_Eavg v_pe v_ke v_strainx v_stressx v_strainy v_stressy

# DEFORMATION
fix boxdeform all deform 1 x scale 2 remap x
fix fnpt all npt temp ${temp} ${temp} 10 y 0 0 500
fix fnpt all npt temp 300 ${temp} 10 y 0 0 500
fix fnpt all npt temp 300 300 10 y 0 0 500
fix output all ave/time 1 100 100 v_strainx v_stressx v_strainy v_stressy file stress_strain.txt
dump 1 all atom 10 dump.lammpstrj
fix stop all halt 100 v_strainx > 0.7  error  continue
thermo 100
run 10000
Per MPI rank memory allocation (min/avg/max) = 45.12 | 45.12 | 45.12 Mbytes
   Step          Time           Temp          TotEng         Press          v_Eavg          v_pe           v_ke        v_strainx      v_stressx      v_strainy      v_stressy   
      1000   1000           307.78871     -313359.39     -1100.9798     -8.4215335     -8.4609596      0.039426109   -4.9203515e-16  1.7693713      2.841006e-16   1.562374     
      1100   1100           304.82034     -313239.51     -5529.5674     -8.4183117     -8.4573576      0.039045877    0.01           14.749733     -0.0091495243   2.044289     
      1200   1200           294.98807     -312826.35     -7105.3112     -8.4072081     -8.4449945      0.037786415    0.02           23.667145     -0.017835053   -2.0630469    
      1300   1300           303.52217     -312151.87     -11563.013     -8.3890816     -8.4279612      0.038879588    0.03           36.628096     -0.026738564   -1.4677448    
      1400   1400           296.82731     -311237.1      -15703.454     -8.364497      -8.402519       0.038022012    0.04           48.57581      -0.035504738   -0.84862551   
      1500   1500           300.808       -309992.45     -20036.269     -8.3310471     -8.3695791      0.038531917    0.05           60.839311     -0.04368109     0.02216067   
      1600   1600           306.67775     -308748.1      -23457.797     -8.2976051     -8.3368889      0.039283801    0.06           71.647963     -0.051748703   -0.35221839   
      1700   1700           287.26378     -307276.02     -27986.235     -8.258043      -8.29484        0.036796975    0.07           83.693879     -0.059501905    1.3433385    
      1800   1800           296.53379     -305415.39     -31271.718     -8.2080385     -8.2460229      0.037984414    0.08           94.276562     -0.067269724    0.75190332   
      1900   1900           292.9347      -303523.84     -34485.695     -8.1572031     -8.1947265      0.037523389    0.09           104.68609     -0.075269421    0.11026125   
      2000   2000           288.15538     -301405.33     -38448.473     -8.1002684     -8.1371795      0.036911184    0.1            115.88561     -0.082540154    0.95186756   
      2100   2100           294.24335     -298983.26     -40914.847     -8.0351751     -8.0728661      0.03769102     0.11           124.87025     -0.089722105   -0.53250639   
      2200   2200           304.30183     -296728.67     -37814.213     -7.9745831     -8.0135626      0.038979459    0.12           119.88001     -0.093666399   -4.950008     
      2300   2300           312.55344     -295371.55     -33931.466     -7.9381104     -7.9781468      0.040036446    0.13           105.45165     -0.090634122   -2.3402876    
      2400   2400           302.06093     -294001.1      -32990.279     -7.9012794     -7.9399719      0.038692411    0.14           101.72709     -0.090926076   -1.473023     
      2500   2500           322.7361      -292239.97     -32029.844     -7.8539491     -7.8952899      0.041340792    0.15           98.013186     -0.09368135    -0.6640027    
      2600   2600           320.72197     -290538.87     -32011.847     -7.8082322     -7.849315       0.041082792    0.16           98.303902     -0.097885557   -1.0145175    
      2700   2700           445.40746     -287731.13     -32514.143     -7.7327743     -7.7898286      0.057054345    0.17           97.351022     -0.1024036      1.3847032    
      2800   2800           496.70702     -286679.44     -31179.526     -7.70451       -7.7681355      0.063625548    0.18           92.133243     -0.1092686      2.707348     
      2900   2900           431.39724     -285764.72     -29336.669     -7.6799269     -7.7351866      0.055259709    0.19           87.478759     -0.10880756     1.7656551    
      3000   3000           437.17089     -287610.84     -25599.479     -7.7295414     -7.7855407      0.055999284    0.2            78.15212      -0.10970578    -0.34294309   
      3100   3100           410.77825     -288649.86     -23029.896     -7.757465      -7.8100835      0.052618526    0.21           71.541943     -0.10896198    -1.6248383    
      3200   3200           357.41454     -290795.96     -22003.939     -7.8151415     -7.8609244      0.045782916    0.22           66.915619     -0.10856958     0.048350715  
      3300   3300           344.10108     -291995.72     -19777.916     -7.8473849     -7.8914625      0.044077533    0.23           62.69925      -0.10905666    -2.6873225    
      3400   3400           326.34553     -292598.75     -21137.125     -7.8635914     -7.9053945      0.04180314     0.24           63.670498     -0.10957508     0.73381137   
      3500   3500           371.0397      -292660.48     -18158.551     -7.8652503     -7.9127785      0.047528228    0.25           57.544845     -0.112182      -2.292322     
      3600   3600           301.04443     -293490.49     -16911.023     -7.887557      -7.9261192      0.038562203    0.26           52.704948     -0.10893085    -1.2063013    
      3700   3700           321.08535     -294095.44     -19206.109     -7.903815      -7.9449443      0.041129339    0.27           56.368092     -0.10948903     2.1262213    
      3800   3800           319.17315     -295501.48     -20416.717     -7.9416023     -7.9824867      0.040884397    0.28           55.737413     -0.10622052     6.0383708    
      3900   3900           319.71282     -296478.38     -13852.676     -7.9678565     -8.00881        0.040953525    0.29           44.334142     -0.10408171    -1.9392105    
      4000   4000           323.13022     -297517.77     -14973.846     -7.99579       -8.0371813      0.041391275    0.3            44.551181     -0.10046101     1.0643569    
      4100   4100           321.60214     -298711.76     -11214.71      -8.0278785     -8.0690741      0.041195537    0.31           38.185709     -0.095468461   -4.0308471    
      4200   4200           334.56729     -299346.9      -13689.813     -8.0449479     -8.0878042      0.042856304    0.32           39.519846     -0.091357064    2.1537799    
      4300   4300           336.78836     -300038.78     -11255.188     -8.0635423     -8.1066831      0.043140811    0.33           33.94841      -0.087241211    0.24865805   
      4400   4400           280.25376     -300956.58     -8816.9705     -8.0882081     -8.1241071      0.035899028    0.34           28.033887     -0.084407171   -1.2236297    
      4500   4500           302.72692     -301783.48     -7443.4862     -8.110431      -8.1492087      0.038777721    0.35           22.922355     -0.081443314   -0.41290964   
      4600   4600           320.90196     -302171.44     -5770.9449     -8.1208574     -8.1619633      0.041105848    0.36           18.879426     -0.076640044   -1.3728884    
      4700   4700           301.82584     -303025.78     -4329.9567     -8.143818      -8.1824802      0.038662297    0.37           14.10492      -0.07371036    -0.5720697    
      4800   4800           312.28132     -303449.53     -4535.406      -8.1552062     -8.1952077      0.04000159     0.38           12.094322     -0.068370433    1.5741042    
      4900   4900           298.1435      -303450.69     -3895.9393     -8.1552373     -8.1934279      0.038190609    0.39           9.0390964     -0.064976351    2.5283341    
      5000   5000           324.51169     -303503.36     -1785.631      -8.1566528     -8.198221       0.041568235    0.4            4.8644933     -0.064789151    0.2486215    
      5100   5100           319.75248     -303598.8      -1474.6625     -8.1592177     -8.2001763      0.040958605    0.41           4.7464766     -0.064346493    0.14701191   
      5200   5200           312.69437     -303501.49     -3040.224      -8.1566024     -8.1966569      0.040054499    0.42           6.0558667     -0.063223201    3.4606414    
      5300   5300           327.27083     -303437.78     -1877.3854     -8.1548905     -8.1968121      0.041921666    0.43           4.2390965     -0.06443029     1.9529665    
      5400   5400           311.30452     -303578.47     -3102.3728     -8.1586715     -8.1985479      0.039876466    0.44           6.5762669     -0.064272008    2.8767082    
      5500   5500           316.70709     -303485.13     -1566.4091     -8.1561629     -8.1967315      0.040568507    0.45           4.0885178     -0.065135527    0.75873292   
      5600   5600           326.08935     -303462.26      821.1759      -8.1555483     -8.1973186      0.041770325    0.46          -0.11174384    -0.067721962   -2.4346695    
      5700   5700           325.92787     -303469.64     -529.87046     -8.1557467     -8.1974963      0.04174964     0.47           2.1419926     -0.068937346   -0.85722792   
      5800   5800           296.38955     -303512.68     -2349.9789     -8.1569033     -8.1948692      0.037965937    0.48           5.1310641     -0.069059747    1.5919981    
      5900   5900           323.36052     -303023.03      457.11722     -8.1437439     -8.1851647      0.041420777    0.49           2.3461963     -0.069345861   -3.3128505    
      6000   6000           327.38837     -303042.36     -1879.731      -8.1442634     -8.1862002      0.041936723    0.5            5.1365669     -0.069832242    0.47753499   
      6100   6100           323.80164     -302684.25     -1330.8363     -8.1346392     -8.1761165      0.041477282    0.51           4.0240295     -0.069506568    0.52518048   
      6200   6200           309.97515     -302772.24     -1821.3174     -8.137004      -8.1767102      0.039706181    0.52           4.3947465     -0.068692022    0.5215793    
      6300   6300           302.02059     -302558.98     -895.86998     -8.1312726     -8.1699598      0.038687243    0.53           3.1956721     -0.06920572    -0.15522772   
      6400   6400           312.86131     -302483.97     -1475.094      -8.1292568     -8.1693327      0.040075883    0.54           3.596749      -0.068558211    0.40258018   
      6500   6500           315.74726     -302266.1      -874.47202     -8.1234014     -8.163847       0.040445558    0.55           3.0683761     -0.069737955   -0.53194508   
      6600   6600           290.25772     -302253.35      1345.0089     -8.1230588     -8.1602393      0.037180482    0.56          -0.3055091     -0.07103449    -3.4695075    
      6700   6700           308.3544      -301796.79     -2574.8484     -8.1107888     -8.1502874      0.039498572    0.57           5.2095189     -0.070356277    2.5179172    
      6800   6800           313.12261     -301706.47     -3720.3299     -8.1083614     -8.1484707      0.040109354    0.58           6.6354192     -0.070130351    3.8673755    
      6900   6900           285.37732     -301541.97     -843.92198     -8.1039405     -8.1404958      0.036555328    0.59           2.4074404     -0.069894954    0.060000789  
      7000   7000           341.6758      -301324.41      1640.8159     -8.0980935     -8.1418604      0.043766868    0.6           -1.7076209     -0.069656699   -2.9447365    
      7100   7100           292.68195     -301317.86     -866.93473     -8.0979176     -8.1354086      0.037491014    0.61           1.5211093     -0.069818213    1.1962735    
      7200   7200           313.49259     -301192.51      462.03447     -8.0945486     -8.1347054      0.040156746    0.62           0.095612228   -0.070425783   -1.2252918    
      7300   7300           311.52588     -300713.37      320.97363     -8.0816717     -8.1215765      0.039904821    0.63           1.5366652     -0.071459797   -2.3306156    
      7400   7400           293.79261     -300854.42     -2505.5741     -8.0854626     -8.1230959      0.037633282    0.64           5.6869354     -0.07205239     1.7572307    
      7500   7500           302.31211     -300887.94     -1070.849      -8.0863635     -8.125088       0.038724585    0.65           3.2002473     -0.072018098   -0.36735122   
      7600   7600           306.4056      -300692.46      739.93244     -8.0811098     -8.1203588      0.03924894     0.66           0.31422279    -0.072023357   -2.6518392    
      7700   7700           291.99507     -300690.7      -2642.4633     -8.0810625     -8.1184655      0.037403027    0.67           4.8614229     -0.071250442    2.7394711    
      7800   7800           284.42289     -300755.15     -1501.9172     -8.0827946     -8.1192277      0.036433071    0.68           4.2566888     -0.071121723    0.66007217   
      7900   7900           301.34798     -300578.32     -1137.7465     -8.0780424     -8.1166435      0.038601086    0.69           2.9177159     -0.072253397    1.307479     
      8000   8000           303.22976     -300498.66      1332.5034     -8.0759014     -8.1147435      0.038842132    0.7           -1.0925451     -0.072922041   -2.0958632    
Fix halt condition for fix-id stop met on step 8100 with value 0.7099999999999989 (src/fix_halt.cpp:237)
      8100   8100           290.40452     -300679.75     -1021.9635     -8.0807682     -8.1179675      0.037199287    0.71           2.0276532     -0.074233985    0.86462011   
Loop time of 313.653 on 1 procs for 7100 steps with 1600 atoms

Performance: 1.956 ns/day, 12.271 hours/ns, 22.636 timesteps/s, 36.218 katom-step/s
100.0% CPU use with 1 MPI tasks x 1 OpenMP threads

MPI task timing breakdown:
Section |  min time  |  avg time  |  max time  |%varavg| %total
---------------------------------------------------------------
Pair    | 309.68     | 309.68     | 309.68     |   0.0 | 98.73
Neigh   | 1.0655     | 1.0655     | 1.0655     |   0.0 |  0.34
Comm    | 0.06471    | 0.06471    | 0.06471    |   0.0 |  0.02
Output  | 1.7362     | 1.7362     | 1.7362     |   0.0 |  0.55
Modify  | 0.98948    | 0.98948    | 0.98948    |   0.0 |  0.32
Other   |            | 0.1214     |            |       |  0.04

Nlocal:           1600 ave        1600 max        1600 min
Histogram: 1 0 0 0 0 0 0 0 0 0
Nghost:            963 ave         963 max         963 min
Histogram: 1 0 0 0 0 0 0 0 0 0
Neighs:         136712 ave      136712 max      136712 min
Histogram: 1 0 0 0 0 0 0 0 0 0

Total # of neighbors = 136712
Ave neighs/atom = 85.445
Neighbor list builds = 262
Dangerous builds = 0
Total wall time: 0:05:57
