LAMMPS (2 Aug 2023 - Update 3)
OMP_NUM_THREADS environment is not set. Defaulting to 1 thread. (src/comm.cpp:98)
  using 1 OpenMP thread(s) per MPI task
# Initialization
units metal
boundary p p p
atom_style atomic
timestep 0.001

# Get three Pt nanoparticles
variable A0 equal 3.9239
lattice fcc ${A0}
lattice fcc 3.9239
Lattice spacing in x,y,z = 3.9239 3.9239 3.9239
region mybox block 0 20 0 20 0 20
region sphere_pt1 sphere 7 10 8 3
region sphere_pt2 sphere 10 10 13.4 3
region sphere_pt3 sphere 13 10 8 3
create_box 1 mybox
Created orthogonal box = (0 0 0) to (78.478 78.478 78.478)
  1 by 1 by 1 MPI processor grid
create_atoms 1 region sphere_pt1
Created 453 atoms
  using lattice units in orthogonal box = (0 0 0) to (78.478 78.478 78.478)
  create_atoms CPU = 0.001 seconds
create_atoms 1 region sphere_pt2
Created 454 atoms
  using lattice units in orthogonal box = (0 0 0) to (78.478 78.478 78.478)
  create_atoms CPU = 0.000 seconds
create_atoms 1 region sphere_pt3
Created 451 atoms
  using lattice units in orthogonal box = (0 0 0) to (78.478 78.478 78.478)
  create_atoms CPU = 0.001 seconds

# Using EAM potential
pair_style eam
pair_coeff 1 1 Pt_u3.eam
Reading eam potential file Pt_u3.eam with DATE: 2007-06-11

# Output initial structure
dump 1 all cfg 1 coord.*.cfg mass type xs ys zs
run 0
WARNING: No fixes with time integration, atoms won't move (src/verlet.cpp:60)
Neighbor list info ...
  update: every = 1 steps, delay = 0 steps, check = yes
  max neighbors/atom: 2000, page size: 100000
  master list distance cutoff = 7.3
  ghost atom cutoff = 7.3
  binsize = 3.65, bins = 22 22 22
  1 neighbor lists, perpetual/occasional/extra = 1 0 0
  (1) pair eam, perpetual
      attributes: half, newton on
      pair build: half/bin/atomonly/newton
      stencil: half/bin/3d
      bin: standard
WARNING: Dump 1 includes no atom IDs and is not sorted by ID. This may complicate post-processing tasks or visualization (src/dump.cpp:221)
Per MPI rank memory allocation (min/avg/max) = 3.392 | 3.392 | 3.392 Mbytes
   Step          Temp          E_pair         E_mol          TotEng         Press     
         0   0             -7150.8713      0             -7150.8713     -5483.359     
Loop time of 2.232e-06 on 1 procs for 0 steps with 1358 atoms

0.0% CPU use with 1 MPI tasks x 1 OpenMP threads

MPI task timing breakdown:
Section |  min time  |  avg time  |  max time  |%varavg| %total
---------------------------------------------------------------
Pair    | 0          | 0          | 0          |   0.0 |  0.00
Neigh   | 0          | 0          | 0          |   0.0 |  0.00
Comm    | 0          | 0          | 0          |   0.0 |  0.00
Output  | 0          | 0          | 0          |   0.0 |  0.00
Modify  | 0          | 0          | 0          |   0.0 |  0.00
Other   |            | 2.232e-06  |            |       |100.00

Nlocal:           1358 ave        1358 max        1358 min
Histogram: 1 0 0 0 0 0 0 0 0 0
Nghost:              0 ave           0 max           0 min
Histogram: 1 0 0 0 0 0 0 0 0 0
Neighs:          40390 ave       40390 max       40390 min
Histogram: 1 0 0 0 0 0 0 0 0 0

Total # of neighbors = 40390
Ave neighs/atom = 29.742268
Neighbor list builds = 0
Dangerous builds = 0
undump 1

# Define triple_neck region
region triple_neck block 7.5 12.5 5 15 9 13
group 1 dynamic all region triple_neck every 1000
dynamic group 1 defined

# Output number of atoms in triple neck region
variable N equal step
variable T equal temp
variable Natom equal count(all)
variable V equal vol/v_Natom
variable sinter_atom equal count(1)
dump 1 all xyz 1000 melt.xyz
thermo 1000
fix extra all print 1000 "${N} ${T} ${sinter_atom}" file data.txt

# Run in 500k, 1000k, 1400k, respectively
fix 1 all npt temp 500 500 0.1 iso 1 1 1
run 10000
0 0 333
Per MPI rank memory allocation (min/avg/max) = 3.392 | 3.392 | 3.392 Mbytes
   Step          Temp          E_pair         E_mol          TotEng         Press          Volume    
         0   0             -7150.8713      0             -7150.8713     -5483.359       483330.03    
1000 486.296714409161 329
      1000   486.29671     -7192.5596      0             -7107.2602     -302.22556      445662.21    
2000 501.403702868556 326
      2000   501.4037      -7218.5739      0             -7130.6246      1.3420997      430847.54    
3000 482.049389169166 373
      3000   482.04939     -7245.7973      0             -7161.2429      114.83698      413334.08    
4000 492.249664334803 383
      4000   492.24966     -7253.1718      0             -7166.8283     -69.895778      416587.98    
5000 508.751987088201 387
      5000   508.75199     -7260.6519      0             -7171.4138     -85.396886      425515.72    
6000 490.955181930975 404
      6000   490.95518     -7265.1942      0             -7179.0777     -11.22431       437816.31    
7000 509.596805930467 414
      7000   509.59681     -7268.1093      0             -7178.723       113.43773      453714.14    
8000 525.081368303543 417
      8000   525.08137     -7268.3313      0             -7176.2288     -100.86074      474540.18    
9000 496.176893017393 429
      9000   496.17689     -7273.0213      0             -7185.9889      15.693321      488785.36    
10000 500.38917819696 433
     10000   500.38918     -7273.883       0             -7186.1117     -92.9687        506498.35    
Loop time of 17.2672 on 1 procs for 10000 steps with 1358 atoms

Performance: 50.037 ns/day, 0.480 hours/ns, 579.132 timesteps/s, 786.461 katom-step/s
99.9% CPU use with 1 MPI tasks x 1 OpenMP threads

MPI task timing breakdown:
Section |  min time  |  avg time  |  max time  |%varavg| %total
---------------------------------------------------------------
Pair    | 16.612     | 16.612     | 16.612     |   0.0 | 96.21
Neigh   | 0.098982   | 0.098982   | 0.098982   |   0.0 |  0.57
Comm    | 0.0035983  | 0.0035983  | 0.0035983  |   0.0 |  0.02
Output  | 0.019389   | 0.019389   | 0.019389   |   0.0 |  0.11
Modify  | 0.48553    | 0.48553    | 0.48553    |   0.0 |  2.81
Other   |            | 0.04724    |            |       |  0.27

Nlocal:           1358 ave        1358 max        1358 min
Histogram: 1 0 0 0 0 0 0 0 0 0
Nghost:              0 ave           0 max           0 min
Histogram: 1 0 0 0 0 0 0 0 0 0
Neighs:          54612 ave       54612 max       54612 min
Histogram: 1 0 0 0 0 0 0 0 0 0

Total # of neighbors = 54612
Ave neighs/atom = 40.215022
Neighbor list builds = 61
Dangerous builds = 0
unfix 1
fix 1 all npt temp 1000 1000 0.1 iso 1 1 1
run 20000
10000 500.38917819696 433
Per MPI rank memory allocation (min/avg/max) = 4.511 | 4.511 | 4.511 Mbytes
   Step          Temp          E_pair         E_mol          TotEng         Press          Volume    
     10000   500.38918     -7273.883       0             -7186.1117     -92.9687        506498.35    
11000 1000.90545659969 437
     11000   1000.9055     -7160.1568      0             -6984.592       0.97098828     543469.7     
12000 960.961317008473 443
     12000   960.96132     -7161.4119      0             -6992.8535      57.838612      577494       
13000 1019.47580819361 451
     13000   1019.4758     -7164.6372      0             -6985.815       74.735519      609118.56    
14000 1011.26197782945 449
     14000   1011.262      -7164.9168      0             -6987.5354      19.490472      644027.69    
15000 974.33470916254 466
     15000   974.33471     -7174.4737      0             -7003.5695     -101.10848      671508.97    
16000 989.953049946211 471
     16000   989.95305     -7175.4612      0             -7001.8174     -50.509337      705652.7     
17000 973.696629164898 477
     17000   973.69663     -7179.1689      0             -7008.3767      32.89638       736085.76    
18000 990.880505970332 490
     18000   990.88051     -7186.7564      0             -7012.95        47.18596       766154.85    
19000 1002.89771161725 499
     19000   1002.8977     -7183.9228      0             -7008.0086     -14.79071       798330.52    
20000 1020.1570476505 500
     20000   1020.157      -7185.4718      0             -7006.5301     -117.29679      824508.67    
21000 964.92873670271 498
     21000   964.92874     -7185.182       0             -7015.9277      27.903618      853821.64    
22000 1001.49407297729 506
     22000   1001.4941     -7193.658       0             -7017.9899     -67.717822      885529.18    
23000 1015.88719687393 508
     23000   1015.8872     -7192.0226      0             -7013.8299      66.76076       908830.61    
24000 1001.38782693401 507
     24000   1001.3878     -7185.4032      0             -7009.7537      107.54847      942121.74    
25000 1035.56089090907 504
     25000   1035.5609     -7189.6148      0             -7007.9712     -8.0691295      970180.04    
26000 985.368008697596 500
     26000   985.36801     -7194.1578      0             -7021.3183      3.4084949      995384.36    
27000 992.010149856204 498
     27000   992.01015     -7198.5023      0             -7024.4977      225.33722      1020046.3    
28000 1016.9928188499 507
     28000   1016.9928     -7205.9489      0             -7027.5623      63.777958      1041623.4    
29000 979.629478381103 501
     29000   979.62948     -7197.7738      0             -7025.9409     -54.1506        1071392.1    
30000 996.765534602912 509
     30000   996.76553     -7198.3191      0             -7023.4804     -127.40158      1087185.5    
Loop time of 34.9787 on 1 procs for 20000 steps with 1358 atoms

Performance: 49.402 ns/day, 0.486 hours/ns, 571.777 timesteps/s, 776.473 katom-step/s
99.9% CPU use with 1 MPI tasks x 1 OpenMP threads

MPI task timing breakdown:
Section |  min time  |  avg time  |  max time  |%varavg| %total
---------------------------------------------------------------
Pair    | 33.587     | 33.587     | 33.587     |   0.0 | 96.02
Neigh   | 0.2881     | 0.2881     | 0.2881     |   0.0 |  0.82
Comm    | 0.0081314  | 0.0081314  | 0.0081314  |   0.0 |  0.02
Output  | 0.038819   | 0.038819   | 0.038819   |   0.0 |  0.11
Modify  | 0.96246    | 0.96246    | 0.96246    |   0.0 |  2.75
Other   |            | 0.09405    |            |       |  0.27

Nlocal:           1358 ave        1358 max        1358 min
Histogram: 1 0 0 0 0 0 0 0 0 0
Nghost:              0 ave           0 max           0 min
Histogram: 1 0 0 0 0 0 0 0 0 0
Neighs:          54416 ave       54416 max       54416 min
Histogram: 1 0 0 0 0 0 0 0 0 0

Total # of neighbors = 54416
Ave neighs/atom = 40.070692
Neighbor list builds = 169
Dangerous builds = 0
unfix 1
fix 1 all npt temp 1400 1400 0.1 iso 1 1 1
run 30000
30000 996.765534602912 509
Per MPI rank memory allocation (min/avg/max) = 4.586 | 4.586 | 4.586 Mbytes
   Step          Temp          E_pair         E_mol          TotEng         Press          Volume    
     30000   996.76553     -7198.3191      0             -7023.4804     -127.40158      1087185.5    
31000 1402.76979376134 506
     31000   1402.7698     -7093.0596      0             -6847.0053      13.676604      1117362.9    
32000 1398.82028971295 508
     32000   1398.8203     -7069.4543      0             -6824.0928      98.225931      1133102.4    
33000 1413.58962504457 495
     33000   1413.5896     -7061.7296      0             -6813.7775      35.215603      1153741.4    
34000 1375.39067215953 497
     34000   1375.3907     -7063.865       0             -6822.6132     -11.060801      1170088.2    
35000 1416.15908034437 510
     35000   1416.1591     -7058.5113      0             -6810.1085     -7.3586276      1171843.8    
36000 1415.37413137402 521
     36000   1415.3741     -7050.2258      0             -6801.9607      20.380372      1177308.1    
37000 1380.65335390637 528
     37000   1380.6534     -7040.9085      0             -6798.7336     -22.432533      1190150.7    
38000 1394.18788038038 531
     38000   1394.1879     -7045.9573      0             -6801.4083      84.10998       1200634.1    
39000 1411.87115780413 529
     39000   1411.8712     -7047.3956      0             -6799.7449      76.05342       1207618.7    
40000 1384.48801435267 535
     40000   1384.488      -7033.2894      0             -6790.4418      30.534952      1219970.5    
41000 1366.2550539974 546
     41000   1366.2551     -7038.1059      0             -6798.4565     -38.63289       1227072.5    
42000 1375.04910850142 554
     42000   1375.0491     -7030.9602      0             -6789.7684      65.596039      1233024.3    
43000 1404.92458913791 551
     43000   1404.9246     -7042.7976      0             -6796.3653      164.33397      1239983.4    
44000 1370.38209863739 554
     44000   1370.3821     -7032.9692      0             -6792.5959      9.8442392      1250734.6    
45000 1424.73884469041 563
     45000   1424.7388     -7044.6135      0             -6794.7058      51.537416      1253297      
46000 1409.78708678433 556
     46000   1409.7871     -7036.9618      0             -6789.6766     -54.592568      1266376.7    
47000 1461.56385971961 570
     47000   1461.5639     -7049.7214      0             -6793.3544      149.17228      1261381.6    
48000 1444.48444233672 566
     48000   1444.4844     -7038.3007      0             -6784.9294     -43.102688      1270126.6    
49000 1425.52076222391 559
     49000   1425.5208     -7041.2461      0             -6791.2012     -134.08561      1277999.1    
50000 1388.18181113661 561
     50000   1388.1818     -7033.1848      0             -6789.6894      111.82323      1276536.4    
51000 1473.68230833782 570
     51000   1473.6823     -7045.7067      0             -6787.2139      123.07209      1276233.4    
52000 1447.72137735394 564
     52000   1447.7214     -7035.3384      0             -6781.3994      68.165485      1280742.3    
53000 1393.88188059156 559
     53000   1393.8819     -7039.6051      0             -6795.1098     -14.961543      1285062.6    
54000 1375.94049419418 565
     54000   1375.9405     -7035.4493      0             -6794.1011      97.981641      1278118.8    
55000 1433.45379714754 561
     55000   1433.4538     -7042.8239      0             -6791.3875     -4.035946       1281217.4    
56000 1336.62570601091 557
     56000   1336.6257     -7050.0534      0             -6815.6012     -43.37525       1273680.1    
57000 1404.66791325358 561
     57000   1404.6679     -7043.004       0             -6796.6168     -101.23524      1267077.5    
58000 1405.06936475307 564
     58000   1405.0694     -7043.9209      0             -6797.4633      29.554743      1252191.2    
59000 1408.23086935496 565
     59000   1408.2309     -7040.8065      0             -6793.7944      93.577564      1242180      
60000 1432.03129792716 565
     60000   1432.0313     -7029.3247      0             -6778.1378      29.700049      1226760.6    
Loop time of 50.9133 on 1 procs for 30000 steps with 1358 atoms

Performance: 50.910 ns/day, 0.471 hours/ns, 589.238 timesteps/s, 800.185 katom-step/s
99.9% CPU use with 1 MPI tasks x 1 OpenMP threads

MPI task timing breakdown:
Section |  min time  |  avg time  |  max time  |%varavg| %total
---------------------------------------------------------------
Pair    | 48.746     | 48.746     | 48.746     |   0.0 | 95.74
Neigh   | 0.50989    | 0.50989    | 0.50989    |   0.0 |  1.00
Comm    | 0.012672   | 0.012672   | 0.012672   |   0.0 |  0.02
Output  | 0.058203   | 0.058203   | 0.058203   |   0.0 |  0.11
Modify  | 1.4446     | 1.4446     | 1.4446     |   0.0 |  2.84
Other   |            | 0.1417     |            |       |  0.28

Nlocal:           1358 ave        1358 max        1358 min
Histogram: 1 0 0 0 0 0 0 0 0 0
Nghost:              0 ave           0 max           0 min
Histogram: 1 0 0 0 0 0 0 0 0 0
Neighs:          53158 ave       53158 max       53158 min
Histogram: 1 0 0 0 0 0 0 0 0 0

Total # of neighbors = 53158
Ave neighs/atom = 39.14433
Neighbor list builds = 300
Dangerous builds = 0
unfix 1
Total wall time: 0:01:43
