1358
 Atoms. Timestep: 0
1 27.4673 33.3531 21.5815
1 25.5053 35.3151 21.5815
1 23.5434 37.2771 21.5815
1 29.4292 35.3151 21.5815
1 27.4673 37.2771 21.5815
1 31.3912 37.2771 21.5815
1 21.5815 39.239 21.5815
1 25.5053 39.239 21.5815
1 23.5434 41.2009 21.5815
1 27.4673 39.239 19.6195
1 29.4292 39.239 21.5815
1 27.4673 41.2009 21.5815
1 33.3531 39.239 21.5815
1 31.3912 41.2009 21.5815
1 25.5053 43.1629 21.5815
1 29.4292 43.1629 21.5815
1 27.4673 45.1249 21.5815
1 27.4673 29.4292 25.5053
1 21.5815 33.3531 23.5434
1 21.5815 31.3912 25.5053
1 19.6195 33.3531 25.5053
1 23.5434 31.3912 23.5434
1 25.5053 33.3531 23.5434
1 25.5053 31.3912 25.5053
1 23.5434 33.3531 25.5053
1 27.4673 31.3912 23.5434
1 29.4292 33.3531 23.5434
1 29.4292 31.3912 25.5053
1 27.4673 33.3531 25.5053
1 31.3912 31.3912 23.5434
1 33.3531 33.3531 23.5434
1 33.3531 31.3912 25.5053
1 31.3912 33.3531 25.5053
1 35.3151 33.3531 25.5053
1 19.6195 35.3151 23.5434
1 21.5815 37.2771 23.5434
1 21.5815 35.3151 25.5053
1 19.6195 37.2771 25.5053
1 23.5434 35.3151 23.5434
1 25.5053 37.2771 23.5434
1 25.5053 35.3151 25.5053
1 23.5434 37.2771 25.5053
1 27.4673 35.3151 23.5434
1 29.4292 37.2771 23.5434
1 29.4292 35.3151 25.5053
1 27.4673 37.2771 25.5053
1 31.3912 35.3151 23.5434
1 33.3531 37.2771 23.5434
1 33.3531 35.3151 25.5053
1 31.3912 37.2771 25.5053
1 35.3151 35.3151 23.5434
1 35.3151 37.2771 25.5053
1 17.6576 39.239 25.5053
1 19.6195 39.239 23.5434
1 21.5815 41.2009 23.5434
1 21.5815 39.239 25.5053
1 19.6195 41.2009 25.5053
1 23.5434 39.239 23.5434
1 25.5053 41.2009 23.5434
1 25.5053 39.239 25.5053
1 23.5434 41.2009 25.5053
1 27.4673 39.239 23.5434
1 29.4292 41.2009 23.5434
1 29.4292 39.239 25.5053
1 27.4673 41.2009 25.5053
1 31.3912 39.239 23.5434
1 33.3531 41.2009 23.5434
1 33.3531 39.239 25.5053
1 31.3912 41.2009 25.5053
1 35.3151 39.239 23.5434
1 37.2771 39.239 25.5053
1 35.3151 41.2009 25.5053
1 19.6195 43.1629 23.5434
1 21.5815 45.1249 23.5434
1 21.5815 43.1629 25.5053
1 19.6195 45.1249 25.5053
1 23.5434 43.1629 23.5434
1 25.5053 45.1249 23.5434
1 25.5053 43.1629 25.5053
1 23.5434 45.1249 25.5053
1 27.4673 43.1629 23.5434
1 29.4292 45.1249 23.5434
1 29.4292 43.1629 25.5053
1 27.4673 45.1249 25.5053
1 31.3912 43.1629 23.5434
1 33.3531 45.1249 23.5434
1 33.3531 43.1629 25.5053
1 31.3912 45.1249 25.5053
1 35.3151 43.1629 23.5434
1 35.3151 45.1249 25.5053
1 21.5815 47.0868 25.5053
1 23.5434 47.0868 23.5434
1 25.5053 47.0868 25.5053
1 27.4673 47.0868 23.5434
1 29.4292 47.0868 25.5053
1 27.4673 49.0488 25.5053
1 31.3912 47.0868 23.5434
1 33.3531 47.0868 25.5053
1 25.5053 29.4292 27.4673
1 23.5434 29.4292 29.4292
1 29.4292 29.4292 27.4673
1 27.4673 29.4292 29.4292
1 31.3912 29.4292 29.4292
1 19.6195 31.3912 27.4673
1 21.5815 33.3531 27.4673
1 21.5815 31.3912 29.4292
1 19.6195 33.3531 29.4292
1 23.5434 31.3912 27.4673
1 25.5053 33.3531 27.4673
1 25.5053 31.3912 29.4292
1 23.5434 33.3531 29.4292
1 27.4673 31.3912 27.4673
1 29.4292 33.3531 27.4673
1 29.4292 31.3912 29.4292
1 27.4673 33.3531 29.4292
1 31.3912 31.3912 27.4673
1 33.3531 33.3531 27.4673
1 33.3531 31.3912 29.4292
1 31.3912 33.3531 29.4292
1 35.3151 31.3912 27.4673
1 35.3151 33.3531 29.4292
1 17.6576 37.2771 27.4673
1 17.6576 35.3151 29.4292
1 19.6195 35.3151 27.4673
1 21.5815 37.2771 27.4673
1 21.5815 35.3151 29.4292
1 19.6195 37.2771 29.4292
1 23.5434 35.3151 27.4673
1 25.5053 37.2771 27.4673
1 25.5053 35.3151 29.4292
1 23.5434 37.2771 29.4292
1 27.4673 35.3151 27.4673
1 29.4292 37.2771 27.4673
1 29.4292 35.3151 29.4292
1 27.4673 37.2771 29.4292
1 31.3912 35.3151 27.4673
1 33.3531 37.2771 27.4673
1 33.3531 35.3151 29.4292
1 31.3912 37.2771 29.4292
1 35.3151 35.3151 27.4673
1 37.2771 37.2771 27.4673
1 37.2771 35.3151 29.4292
1 35.3151 37.2771 29.4292
1 17.6576 41.2009 27.4673
1 17.6576 39.239 29.4292
1 19.6195 39.239 27.4673
1 21.5815 41.2009 27.4673
1 21.5815 39.239 29.4292
1 19.6195 41.2009 29.4292
1 23.5434 39.239 27.4673
1 25.5053 41.2009 27.4673
1 25.5053 39.239 29.4292
1 23.5434 41.2009 29.4292
1 27.4673 39.239 27.4673
1 29.4292 41.2009 27.4673
1 29.4292 39.239 29.4292
1 27.4673 41.2009 29.4292
1 31.3912 39.239 27.4673
1 33.3531 41.2009 27.4673
1 33.3531 39.239 29.4292
1 31.3912 41.2009 29.4292
1 35.3151 39.239 27.4673
1 37.2771 41.2009 27.4673
1 37.2771 39.239 29.4292
1 35.3151 41.2009 29.4292
1 17.6576 43.1629 29.4292
1 19.6195 43.1629 27.4673
1 21.5815 45.1249 27.4673
1 21.5815 43.1629 29.4292
1 19.6195 45.1249 29.4292
1 23.5434 43.1629 27.4673
1 25.5053 45.1249 27.4673
1 25.5053 43.1629 29.4292
1 23.5434 45.1249 29.4292
1 27.4673 43.1629 27.4673
1 29.4292 45.1249 27.4673
1 29.4292 43.1629 29.4292
1 27.4673 45.1249 29.4292
1 31.3912 43.1629 27.4673
1 33.3531 45.1249 27.4673
1 33.3531 43.1629 29.4292
1 31.3912 45.1249 29.4292
1 35.3151 43.1629 27.4673
1 37.2771 43.1629 29.4292
1 35.3151 45.1249 29.4292
1 19.6195 47.0868 27.4673
1 21.5815 47.0868 29.4292
1 23.5434 47.0868 27.4673
1 25.5053 49.0488 27.4673
1 25.5053 47.0868 29.4292
1 23.5434 49.0488 29.4292
1 27.4673 47.0868 27.4673
1 29.4292 49.0488 27.4673
1 29.4292 47.0868 29.4292
1 27.4673 49.0488 29.4292
1 31.3912 47.0868 27.4673
1 33.3531 47.0868 29.4292
1 31.3912 49.0488 29.4292
1 35.3151 47.0868 27.4673
1 21.5815 29.4292 31.3912
1 25.5053 29.4292 31.3912
1 23.5434 29.4292 33.3531
1 29.4292 29.4292 31.3912
1 27.4673 29.4292 33.3531
1 33.3531 29.4292 31.3912
1 31.3912 29.4292 33.3531
1 17.6576 33.3531 31.3912
1 19.6195 31.3912 31.3912
1 21.5815 33.3531 31.3912
1 21.5815 31.3912 33.3531
1 19.6195 33.3531 33.3531
1 23.5434 31.3912 31.3912
1 25.5053 33.3531 31.3912
1 25.5053 31.3912 33.3531
1 23.5434 33.3531 33.3531
1 27.4673 31.3912 31.3912
1 29.4292 33.3531 31.3912
1 29.4292 31.3912 33.3531
1 27.4673 33.3531 33.3531
1 31.3912 31.3912 31.3912
1 33.3531 33.3531 31.3912
1 33.3531 31.3912 33.3531
1 31.3912 33.3531 33.3531
1 35.3151 31.3912 31.3912
1 37.2771 33.3531 31.3912
1 35.3151 33.3531 33.3531
1 17.6576 37.2771 31.3912
1 17.6576 35.3151 33.3531
1 19.6195 35.3151 31.3912
1 21.5815 37.2771 31.3912
1 21.5815 35.3151 33.3531
1 19.6195 37.2771 33.3531
1 23.5434 35.3151 31.3912
1 25.5053 37.2771 31.3912
1 25.5053 35.3151 33.3531
1 23.5434 37.2771 33.3531
1 27.4673 35.3151 31.3912
1 29.4292 37.2771 31.3912
1 29.4292 35.3151 33.3531
1 27.4673 37.2771 33.3531
1 31.3912 35.3151 31.3912
1 33.3531 37.2771 31.3912
1 33.3531 35.3151 33.3531
1 31.3912 37.2771 33.3531
1 35.3151 35.3151 31.3912
1 37.2771 37.2771 31.3912
1 37.2771 35.3151 33.3531
1 35.3151 37.2771 33.3531
1 15.6956 39.239 31.3912
1 17.6576 41.2009 31.3912
1 17.6576 39.239 33.3531
1 19.6195 39.239 31.3912
1 21.5815 41.2009 31.3912
1 21.5815 39.239 33.3531
1 19.6195 41.2009 33.3531
1 23.5434 39.239 31.3912
1 25.5053 41.2009 31.3912
1 25.5053 39.239 33.3531
1 23.5434 41.2009 33.3531
1 27.4673 39.239 31.3912
1 29.4292 41.2009 31.3912
1 29.4292 39.239 33.3531
1 27.4673 41.2009 33.3531
1 31.3912 39.239 31.3912
1 33.3531 41.2009 31.3912
1 33.3531 39.239 33.3531
1 31.3912 41.2009 33.3531
1 35.3151 39.239 31.3912
1 37.2771 41.2009 31.3912
1 37.2771 39.239 33.3531
1 35.3151 41.2009 33.3531
1 17.6576 45.1249 31.3912
1 17.6576 43.1629 33.3531
1 19.6195 43.1629 31.3912
1 21.5815 45.1249 31.3912
1 21.5815 43.1629 33.3531
1 19.6195 45.1249 33.3531
1 23.5434 43.1629 31.3912
1 25.5053 45.1249 31.3912
1 25.5053 43.1629 33.3531
1 23.5434 45.1249 33.3531
1 27.4673 43.1629 31.3912
1 29.4292 45.1249 31.3912
1 29.4292 43.1629 33.3531
1 27.4673 45.1249 33.3531
1 31.3912 43.1629 31.3912
1 33.3531 45.1249 31.3912
1 33.3531 43.1629 33.3531
1 31.3912 45.1249 33.3531
1 35.3151 43.1629 31.3912
1 37.2771 45.1249 31.3912
1 37.2771 43.1629 33.3531
1 35.3151 45.1249 33.3531
1 19.6195 47.0868 31.3912
1 21.5815 49.0488 31.3912
1 21.5815 47.0868 33.3531
1 23.5434 47.0868 31.3912
1 25.5053 49.0488 31.3912
1 25.5053 47.0868 33.3531
1 23.5434 49.0488 33.3531
1 27.4673 47.0868 31.3912
1 29.4292 49.0488 31.3912
1 29.4292 47.0868 33.3531
1 27.4673 49.0488 33.3531
1 31.3912 47.0868 31.3912
1 33.3531 49.0488 31.3912
1 33.3531 47.0868 33.3531
1 31.3912 49.0488 33.3531
1 35.3151 47.0868 31.3912
1 27.4673 51.0107 31.3912
1 25.5053 29.4292 35.3151
1 29.4292 29.4292 35.3151
1 27.4673 29.4292 37.2771
1 19.6195 31.3912 35.3151
1 21.5815 33.3531 35.3151
1 21.5815 31.3912 37.2771
1 19.6195 33.3531 37.2771
1 23.5434 31.3912 35.3151
1 25.5053 33.3531 35.3151
1 25.5053 31.3912 37.2771
1 23.5434 33.3531 37.2771
1 27.4673 31.3912 35.3151
1 29.4292 33.3531 35.3151
1 29.4292 31.3912 37.2771
1 27.4673 33.3531 37.2771
1 31.3912 31.3912 35.3151
1 33.3531 33.3531 35.3151
1 33.3531 31.3912 37.2771
1 31.3912 33.3531 37.2771
1 35.3151 31.3912 35.3151
1 35.3151 33.3531 37.2771
1 17.6576 37.2771 35.3151
1 19.6195 35.3151 35.3151
1 21.5815 37.2771 35.3151
1 21.5815 35.3151 37.2771
1 19.6195 37.2771 37.2771
1 23.5434 35.3151 35.3151
1 25.5053 37.2771 35.3151
1 25.5053 35.3151 37.2771
1 23.5434 37.2771 37.2771
1 27.4673 35.3151 35.3151
1 29.4292 37.2771 35.3151
1 29.4292 35.3151 37.2771
1 27.4673 37.2771 37.2771
1 31.3912 35.3151 35.3151
1 33.3531 37.2771 35.3151
1 33.3531 35.3151 37.2771
1 31.3912 37.2771 37.2771
1 35.3151 35.3151 35.3151
1 37.2771 37.2771 35.3151
1 35.3151 37.2771 37.2771
1 17.6576 41.2009 35.3151
1 17.6576 39.239 37.2771
1 19.6195 39.239 35.3151
1 21.5815 41.2009 35.3151
1 21.5815 39.239 37.2771
1 19.6195 41.2009 37.2771
1 23.5434 39.239 35.3151
1 25.5053 41.2009 35.3151
1 25.5053 39.239 37.2771
1 23.5434 41.2009 37.2771
1 27.4673 39.239 35.3151
1 29.4292 41.2009 35.3151
1 29.4292 39.239 37.2771
1 27.4673 41.2009 37.2771
1 31.3912 39.239 35.3151
1 33.3531 41.2009 35.3151
1 33.3531 39.239 37.2771
1 31.3912 41.2009 37.2771
1 35.3151 39.239 35.3151
1 37.2771 41.2009 35.3151
1 37.2771 39.239 37.2771
1 35.3151 41.2009 37.2771
1 19.6195 43.1629 35.3151
1 21.5815 45.1249 35.3151
1 21.5815 43.1629 37.2771
1 19.6195 45.1249 37.2771
1 23.5434 43.1629 35.3151
1 25.5053 45.1249 35.3151
1 25.5053 43.1629 37.2771
1 23.5434 45.1249 37.2771
1 27.4673 43.1629 35.3151
1 29.4292 45.1249 35.3151
1 29.4292 43.1629 37.2771
1 27.4673 45.1249 37.2771
1 31.3912 43.1629 35.3151
1 33.3531 45.1249 35.3151
1 33.3531 43.1629 37.2771
1 31.3912 45.1249 37.2771
1 35.3151 43.1629 35.3151
1 35.3151 45.1249 37.2771
1 19.6195 47.0868 35.3151
1 21.5815 47.0868 37.2771
1 23.5434 47.0868 35.3151
1 25.5053 49.0488 35.3151
1 25.5053 47.0868 37.2771
1 27.4673 47.0868 35.3151
1 29.4292 49.0488 35.3151
1 29.4292 47.0868 37.2771
1 27.4673 49.0488 37.2771
1 31.3912 47.0868 35.3151
1 33.3531 47.0868 37.2771
1 35.3151 47.0868 35.3151
1 21.5815 33.3531 39.239
1 25.5053 33.3531 39.239
1 27.4673 31.3912 39.239
1 29.4292 33.3531 39.239
1 27.4673 33.3531 41.2009
1 33.3531 33.3531 39.239
1 21.5815 37.2771 39.239
1 23.5434 35.3151 39.239
1 25.5053 37.2771 39.239
1 25.5053 35.3151 41.2009
1 23.5434 37.2771 41.2009
1 27.4673 35.3151 39.239
1 29.4292 37.2771 39.239
1 29.4292 35.3151 41.2009
1 27.4673 37.2771 41.2009
1 31.3912 35.3151 39.239
1 33.3531 37.2771 39.239
1 31.3912 37.2771 41.2009
1 19.6195 39.239 39.239
1 21.5815 41.2009 39.239
1 21.5815 39.239 41.2009
1 23.5434 39.239 39.239
1 25.5053 41.2009 39.239
1 25.5053 39.239 41.2009
1 23.5434 41.2009 41.2009
1 27.4673 39.239 39.239
1 29.4292 41.2009 39.239
1 29.4292 39.239 41.2009
1 27.4673 41.2009 41.2009
1 31.3912 39.239 39.239
1 33.3531 41.2009 39.239
1 33.3531 39.239 41.2009
1 31.3912 41.2009 41.2009
1 35.3151 39.239 39.239
1 19.6195 43.1629 39.239
1 21.5815 45.1249 39.239
1 23.5434 43.1629 39.239
1 25.5053 45.1249 39.239
1 25.5053 43.1629 41.2009
1 27.4673 43.1629 39.239
1 29.4292 45.1249 39.239
1 29.4292 43.1629 41.2009
1 27.4673 45.1249 41.2009
1 31.3912 43.1629 39.239
1 33.3531 45.1249 39.239
1 35.3151 43.1629 39.239
1 23.5434 47.0868 39.239
1 27.4673 47.0868 39.239
1 31.3912 47.0868 39.239
1 27.4673 39.239 43.1629
1 39.239 37.2771 41.2009
1 37.2771 39.239 41.2009
1 41.2009 39.239 41.2009
1 39.239 41.2009 41.2009
1 37.2771 33.3531 43.1629
1 37.2771 31.3912 45.1249
1 35.3151 33.3531 45.1249
1 41.2009 33.3531 43.1629
1 41.2009 31.3912 45.1249
1 39.239 33.3531 45.1249
1 43.1629 33.3531 45.1249
1 33.3531 37.2771 43.1629
1 33.3531 35.3151 45.1249
1 31.3912 37.2771 45.1249
1 35.3151 35.3151 43.1629
1 37.2771 37.2771 43.1629
1 37.2771 35.3151 45.1249
1 35.3151 37.2771 45.1249
1 39.239 35.3151 43.1629
1 41.2009 37.2771 43.1629
1 41.2009 35.3151 45.1249
1 39.239 37.2771 45.1249
1 43.1629 35.3151 43.1629
1 45.1249 37.2771 43.1629
1 45.1249 35.3151 45.1249
1 43.1629 37.2771 45.1249
1 47.0868 37.2771 45.1249
1 33.3531 41.2009 43.1629
1 33.3531 39.239 45.1249
1 31.3912 41.2009 45.1249
1 35.3151 39.239 43.1629
1 37.2771 41.2009 43.1629
1 37.2771 39.239 45.1249
1 35.3151 41.2009 45.1249
1 39.239 39.239 43.1629
1 41.2009 41.2009 43.1629
1 41.2009 39.239 45.1249
1 39.239 41.2009 45.1249
1 43.1629 39.239 43.1629
1 45.1249 41.2009 43.1629
1 45.1249 39.239 45.1249
1 43.1629 41.2009 45.1249
1 47.0868 41.2009 45.1249
1 33.3531 43.1629 45.1249
1 35.3151 43.1629 43.1629
1 37.2771 45.1249 43.1629
1 37.2771 43.1629 45.1249
1 35.3151 45.1249 45.1249
1 39.239 43.1629 43.1629
1 41.2009 45.1249 43.1629
1 41.2009 43.1629 45.1249
1 39.239 45.1249 45.1249
1 43.1629 43.1629 43.1629
1 45.1249 43.1629 45.1249
1 43.1629 45.1249 45.1249
1 37.2771 47.0868 45.1249
1 41.2009 47.0868 45.1249
1 37.2771 29.4292 47.0868
1 35.3151 29.4292 49.0488
1 41.2009 29.4292 47.0868
1 39.239 29.4292 49.0488
1 43.1629 29.4292 49.0488
1 33.3531 33.3531 47.0868
1 33.3531 31.3912 49.0488
1 31.3912 33.3531 49.0488
1 35.3151 31.3912 47.0868
1 37.2771 33.3531 47.0868
1 37.2771 31.3912 49.0488
1 35.3151 33.3531 49.0488
1 39.239 31.3912 47.0868
1 41.2009 33.3531 47.0868
1 41.2009 31.3912 49.0488
1 39.239 33.3531 49.0488
1 43.1629 31.3912 47.0868
1 45.1249 33.3531 47.0868
1 45.1249 31.3912 49.0488
1 43.1629 33.3531 49.0488
1 47.0868 33.3531 49.0488
1 29.4292 37.2771 47.0868
1 29.4292 35.3151 49.0488
1 31.3912 35.3151 47.0868
1 33.3531 37.2771 47.0868
1 33.3531 35.3151 49.0488
1 31.3912 37.2771 49.0488
1 35.3151 35.3151 47.0868
1 37.2771 37.2771 47.0868
1 37.2771 35.3151 49.0488
1 35.3151 37.2771 49.0488
1 39.239 35.3151 47.0868
1 41.2009 37.2771 47.0868
1 41.2009 35.3151 49.0488
1 39.239 37.2771 49.0488
1 43.1629 35.3151 47.0868
1 45.1249 37.2771 47.0868
1 45.1249 35.3151 49.0488
1 43.1629 37.2771 49.0488
1 47.0868 35.3151 47.0868
1 49.0488 37.2771 47.0868
1 49.0488 35.3151 49.0488
1 47.0868 37.2771 49.0488
1 29.4292 41.2009 47.0868
1 29.4292 39.239 49.0488
1 31.3912 39.239 47.0868
1 33.3531 41.2009 47.0868
1 33.3531 39.239 49.0488
1 31.3912 41.2009 49.0488
1 35.3151 39.239 47.0868
1 37.2771 41.2009 47.0868
1 37.2771 39.239 49.0488
1 35.3151 41.2009 49.0488
1 39.239 39.239 47.0868
1 41.2009 41.2009 47.0868
1 41.2009 39.239 49.0488
1 39.239 41.2009 49.0488
1 43.1629 39.239 47.0868
1 45.1249 41.2009 47.0868
1 45.1249 39.239 49.0488
1 43.1629 41.2009 49.0488
1 47.0868 39.239 47.0868
1 49.0488 41.2009 47.0868
1 49.0488 39.239 49.0488
1 47.0868 41.2009 49.0488
1 29.4292 43.1629 49.0488
1 31.3912 43.1629 47.0868
1 33.3531 45.1249 47.0868
1 33.3531 43.1629 49.0488
1 31.3912 45.1249 49.0488
1 35.3151 43.1629 47.0868
1 37.2771 45.1249 47.0868
1 37.2771 43.1629 49.0488
1 35.3151 45.1249 49.0488
1 39.239 43.1629 47.0868
1 41.2009 45.1249 47.0868
1 41.2009 43.1629 49.0488
1 39.239 45.1249 49.0488
1 43.1629 43.1629 47.0868
1 45.1249 45.1249 47.0868
1 45.1249 43.1629 49.0488
1 43.1629 45.1249 49.0488
1 47.0868 43.1629 47.0868
1 49.0488 43.1629 49.0488
1 47.0868 45.1249 49.0488
1 33.3531 47.0868 49.0488
1 35.3151 47.0868 47.0868
1 37.2771 49.0488 47.0868
1 37.2771 47.0868 49.0488
1 35.3151 49.0488 49.0488
1 39.239 47.0868 47.0868
1 41.2009 49.0488 47.0868
1 41.2009 47.0868 49.0488
1 39.239 49.0488 49.0488
1 43.1629 47.0868 47.0868
1 45.1249 47.0868 49.0488
1 43.1629 49.0488 49.0488
1 33.3531 29.4292 51.0107
1 37.2771 29.4292 51.0107
1 35.3151 29.4292 52.9727
1 41.2009 29.4292 51.0107
1 39.239 29.4292 52.9727
1 45.1249 29.4292 51.0107
1 43.1629 29.4292 52.9727
1 29.4292 33.3531 51.0107
1 31.3912 31.3912 51.0107
1 33.3531 33.3531 51.0107
1 33.3531 31.3912 52.9727
1 31.3912 33.3531 52.9727
1 35.3151 31.3912 51.0107
1 37.2771 33.3531 51.0107
1 37.2771 31.3912 52.9727
1 35.3151 33.3531 52.9727
1 39.239 31.3912 51.0107
1 41.2009 33.3531 51.0107
1 41.2009 31.3912 52.9727
1 39.239 33.3531 52.9727
1 43.1629 31.3912 51.0107
1 45.1249 33.3531 51.0107
1 45.1249 31.3912 52.9727
1 43.1629 33.3531 52.9727
1 47.0868 31.3912 51.0107
1 49.0488 33.3531 51.0107
1 47.0868 33.3531 52.9727
1 29.4292 37.2771 51.0107
1 29.4292 35.3151 52.9727
1 31.3912 35.3151 51.0107
1 33.3531 37.2771 51.0107
1 33.3531 35.3151 52.9727
1 31.3912 37.2771 52.9727
1 35.3151 35.3151 51.0107
1 37.2771 37.2771 51.0107
1 37.2771 35.3151 52.9727
1 35.3151 37.2771 52.9727
1 39.239 35.3151 51.0107
1 41.2009 37.2771 51.0107
1 41.2009 35.3151 52.9727
1 39.239 37.2771 52.9727
1 43.1629 35.3151 51.0107
1 45.1249 37.2771 51.0107
1 45.1249 35.3151 52.9727
1 43.1629 37.2771 52.9727
1 47.0868 35.3151 51.0107
1 49.0488 37.2771 51.0107
1 49.0488 35.3151 52.9727
1 47.0868 37.2771 52.9727
1 29.4292 41.2009 51.0107
1 29.4292 39.239 52.9727
1 31.3912 39.239 51.0107
1 33.3531 41.2009 51.0107
1 33.3531 39.239 52.9727
1 31.3912 41.2009 52.9727
1 35.3151 39.239 51.0107
1 37.2771 41.2009 51.0107
1 37.2771 39.239 52.9727
1 35.3151 41.2009 52.9727
1 39.239 39.239 51.0107
1 41.2009 41.2009 51.0107
1 41.2009 39.239 52.9727
1 39.239 41.2009 52.9727
1 43.1629 39.239 51.0107
1 45.1249 41.2009 51.0107
1 45.1249 39.239 52.9727
1 43.1629 41.2009 52.9727
1 47.0868 39.239 51.0107
1 49.0488 41.2009 51.0107
1 49.0488 39.239 52.9727
1 47.0868 41.2009 52.9727
1 29.4292 45.1249 51.0107
1 29.4292 43.1629 52.9727
1 31.3912 43.1629 51.0107
1 33.3531 45.1249 51.0107
1 33.3531 43.1629 52.9727
1 31.3912 45.1249 52.9727
1 35.3151 43.1629 51.0107
1 37.2771 45.1249 51.0107
1 37.2771 43.1629 52.9727
1 35.3151 45.1249 52.9727
1 39.239 43.1629 51.0107
1 41.2009 45.1249 51.0107
1 41.2009 43.1629 52.9727
1 39.239 45.1249 52.9727
1 43.1629 43.1629 51.0107
1 45.1249 45.1249 51.0107
1 45.1249 43.1629 52.9727
1 43.1629 45.1249 52.9727
1 47.0868 43.1629 51.0107
1 49.0488 45.1249 51.0107
1 49.0488 43.1629 52.9727
1 47.0868 45.1249 52.9727
1 31.3912 47.0868 51.0107
1 33.3531 49.0488 51.0107
1 33.3531 47.0868 52.9727
1 35.3151 47.0868 51.0107
1 37.2771 49.0488 51.0107
1 37.2771 47.0868 52.9727
1 35.3151 49.0488 52.9727
1 39.239 47.0868 51.0107
1 41.2009 49.0488 51.0107
1 41.2009 47.0868 52.9727
1 39.239 49.0488 52.9727
1 43.1629 47.0868 51.0107
1 45.1249 49.0488 51.0107
1 45.1249 47.0868 52.9727
1 43.1629 49.0488 52.9727
1 47.0868 47.0868 51.0107
1 33.3531 29.4292 54.9346
1 37.2771 29.4292 54.9346
1 35.3151 29.4292 56.8966
1 41.2009 29.4292 54.9346
1 39.239 29.4292 56.8966
1 45.1249 29.4292 54.9346
1 43.1629 29.4292 56.8966
1 29.4292 33.3531 54.9346
1 31.3912 31.3912 54.9346
1 33.3531 33.3531 54.9346
1 33.3531 31.3912 56.8966
1 31.3912 33.3531 56.8966
1 35.3151 31.3912 54.9346
1 37.2771 33.3531 54.9346
1 37.2771 31.3912 56.8966
1 35.3151 33.3531 56.8966
1 39.239 31.3912 54.9346
1 41.2009 33.3531 54.9346
1 41.2009 31.3912 56.8966
1 39.239 33.3531 56.8966
1 43.1629 31.3912 54.9346
1 45.1249 33.3531 54.9346
1 45.1249 31.3912 56.8966
1 43.1629 33.3531 56.8966
1 47.0868 31.3912 54.9346
1 49.0488 33.3531 54.9346
1 47.0868 33.3531 56.8966
1 29.4292 37.2771 54.9346
1 29.4292 35.3151 56.8966
1 31.3912 35.3151 54.9346
1 33.3531 37.2771 54.9346
1 33.3531 35.3151 56.8966
1 31.3912 37.2771 56.8966
1 35.3151 35.3151 54.9346
1 37.2771 37.2771 54.9346
1 37.2771 35.3151 56.8966
1 35.3151 37.2771 56.8966
1 39.239 35.3151 54.9346
1 41.2009 37.2771 54.9346
1 41.2009 35.3151 56.8966
1 39.239 37.2771 56.8966
1 43.1629 35.3151 54.9346
1 45.1249 37.2771 54.9346
1 45.1249 35.3151 56.8966
1 43.1629 37.2771 56.8966
1 47.0868 35.3151 54.9346
1 49.0488 37.2771 54.9346
1 49.0488 35.3151 56.8966
1 47.0868 37.2771 56.8966
1 29.4292 41.2009 54.9346
1 29.4292 39.239 56.8966
1 31.3912 39.239 54.9346
1 33.3531 41.2009 54.9346
1 33.3531 39.239 56.8966
1 31.3912 41.2009 56.8966
1 35.3151 39.239 54.9346
1 37.2771 41.2009 54.9346
1 37.2771 39.239 56.8966
1 35.3151 41.2009 56.8966
1 39.239 39.239 54.9346
1 41.2009 41.2009 54.9346
1 41.2009 39.239 56.8966
1 39.239 41.2009 56.8966
1 43.1629 39.239 54.9346
1 45.1249 41.2009 54.9346
1 45.1249 39.239 56.8966
1 43.1629 41.2009 56.8966
1 47.0868 39.239 54.9346
1 49.0488 41.2009 54.9346
1 49.0488 39.239 56.8966
1 47.0868 41.2009 56.8966
1 29.4292 45.1249 54.9346
1 29.4292 43.1629 56.8966
1 31.3912 43.1629 54.9346
1 33.3531 45.1249 54.9346
1 33.3531 43.1629 56.8966
1 31.3912 45.1249 56.8966
1 35.3151 43.1629 54.9346
1 37.2771 45.1249 54.9346
1 37.2771 43.1629 56.8966
1 35.3151 45.1249 56.8966
1 39.239 43.1629 54.9346
1 41.2009 45.1249 54.9346
1 41.2009 43.1629 56.8966
1 39.239 45.1249 56.8966
1 43.1629 43.1629 54.9346
1 45.1249 45.1249 54.9346
1 45.1249 43.1629 56.8966
1 43.1629 45.1249 56.8966
1 47.0868 43.1629 54.9346
1 49.0488 45.1249 54.9346
1 49.0488 43.1629 56.8966
1 47.0868 45.1249 56.8966
1 31.3912 47.0868 54.9346
1 33.3531 49.0488 54.9346
1 33.3531 47.0868 56.8966
1 35.3151 47.0868 54.9346
1 37.2771 49.0488 54.9346
1 37.2771 47.0868 56.8966
1 35.3151 49.0488 56.8966
1 39.239 47.0868 54.9346
1 41.2009 49.0488 54.9346
1 41.2009 47.0868 56.8966
1 39.239 49.0488 56.8966
1 43.1629 47.0868 54.9346
1 45.1249 49.0488 54.9346
1 45.1249 47.0868 56.8966
1 43.1629 49.0488 56.8966
1 47.0868 47.0868 54.9346
1 33.3531 33.3531 58.8585
1 35.3151 31.3912 58.8585
1 37.2771 33.3531 58.8585
1 37.2771 31.3912 60.8205
1 35.3151 33.3531 60.8205
1 39.239 31.3912 58.8585
1 41.2009 33.3531 58.8585
1 41.2009 31.3912 60.8205
1 39.239 33.3531 60.8205
1 43.1629 31.3912 58.8585
1 45.1249 33.3531 58.8585
1 43.1629 33.3531 60.8205
1 31.3912 35.3151 58.8585
1 33.3531 37.2771 58.8585
1 33.3531 35.3151 60.8205
1 31.3912 37.2771 60.8205
1 35.3151 35.3151 58.8585
1 37.2771 37.2771 58.8585
1 37.2771 35.3151 60.8205
1 35.3151 37.2771 60.8205
1 39.239 35.3151 58.8585
1 41.2009 37.2771 58.8585
1 41.2009 35.3151 60.8205
1 39.239 37.2771 60.8205
1 43.1629 35.3151 58.8585
1 45.1249 37.2771 58.8585
1 45.1249 35.3151 60.8205
1 43.1629 37.2771 60.8205
1 47.0868 35.3151 58.8585
1 47.0868 37.2771 60.8205
1 31.3912 39.239 58.8585
1 33.3531 41.2009 58.8585
1 33.3531 39.239 60.8205
1 31.3912 41.2009 60.8205
1 35.3151 39.239 58.8585
1 37.2771 41.2009 58.8585
1 37.2771 39.239 60.8205
1 35.3151 41.2009 60.8205
1 39.239 39.239 58.8585
1 41.2009 41.2009 58.8585
1 41.2009 39.239 60.8205
1 39.239 41.2009 60.8205
1 43.1629 39.239 58.8585
1 45.1249 41.2009 58.8585
1 45.1249 39.239 60.8205
1 43.1629 41.2009 60.8205
1 47.0868 39.239 58.8585
1 47.0868 41.2009 60.8205
1 31.3912 43.1629 58.8585
1 33.3531 45.1249 58.8585
1 33.3531 43.1629 60.8205
1 35.3151 43.1629 58.8585
1 37.2771 45.1249 58.8585
1 37.2771 43.1629 60.8205
1 35.3151 45.1249 60.8205
1 39.239 43.1629 58.8585
1 41.2009 45.1249 58.8585
1 41.2009 43.1629 60.8205
1 39.239 45.1249 60.8205
1 43.1629 43.1629 58.8585
1 45.1249 45.1249 58.8585
1 45.1249 43.1629 60.8205
1 43.1629 45.1249 60.8205
1 47.0868 43.1629 58.8585
1 35.3151 47.0868 58.8585
1 37.2771 47.0868 60.8205
1 39.239 47.0868 58.8585
1 41.2009 47.0868 60.8205
1 43.1629 47.0868 58.8585
1 35.3151 35.3151 62.7824
1 37.2771 37.2771 62.7824
1 39.239 35.3151 62.7824
1 41.2009 37.2771 62.7824
1 43.1629 35.3151 62.7824
1 35.3151 39.239 62.7824
1 37.2771 41.2009 62.7824
1 39.239 39.239 62.7824
1 41.2009 41.2009 62.7824
1 43.1629 39.239 62.7824
1 35.3151 43.1629 62.7824
1 39.239 43.1629 62.7824
1 43.1629 43.1629 62.7824
1 51.0107 33.3531 21.5815
1 49.0488 35.3151 21.5815
1 47.0868 37.2771 21.5815
1 52.9727 35.3151 21.5815
1 51.0107 37.2771 21.5815
1 54.9346 37.2771 21.5815
1 45.1249 39.239 21.5815
1 49.0488 39.239 21.5815
1 47.0868 41.2009 21.5815
1 51.0107 39.239 19.6195
1 52.9727 39.239 21.5815
1 51.0107 41.2009 21.5815
1 56.8966 39.239 21.5815
1 54.9346 41.2009 21.5815
1 49.0488 43.1629 21.5815
1 52.9727 43.1629 21.5815
1 51.0107 45.1249 21.5815
1 51.0107 29.4292 25.5053
1 45.1249 33.3531 23.5434
1 45.1249 31.3912 25.5053
1 43.1629 33.3531 25.5053
1 47.0868 31.3912 23.5434
1 49.0488 33.3531 23.5434
1 49.0488 31.3912 25.5053
1 47.0868 33.3531 25.5053
1 51.0107 31.3912 23.5434
1 52.9727 33.3531 23.5434
1 52.9727 31.3912 25.5053
1 51.0107 33.3531 25.5053
1 56.8966 33.3531 23.5434
1 56.8966 31.3912 25.5053
1 54.9346 33.3531 25.5053
1 58.8585 33.3531 25.5053
1 43.1629 35.3151 23.5434
1 45.1249 37.2771 23.5434
1 45.1249 35.3151 25.5053
1 43.1629 37.2771 25.5053
1 47.0868 35.3151 23.5434
1 49.0488 37.2771 23.5434
1 49.0488 35.3151 25.5053
1 47.0868 37.2771 25.5053
1 51.0107 35.3151 23.5434
1 52.9727 37.2771 23.5434
1 52.9727 35.3151 25.5053
1 51.0107 37.2771 25.5053
1 54.9346 35.3151 23.5434
1 56.8966 37.2771 23.5434
1 56.8966 35.3151 25.5053
1 54.9346 37.2771 25.5053
1 58.8585 35.3151 23.5434
1 58.8585 37.2771 25.5053
1 41.2009 39.239 25.5053
1 43.1629 39.239 23.5434
1 45.1249 41.2009 23.5434
1 45.1249 39.239 25.5053
1 43.1629 41.2009 25.5053
1 47.0868 39.239 23.5434
1 49.0488 41.2009 23.5434
1 49.0488 39.239 25.5053
1 47.0868 41.2009 25.5053
1 51.0107 39.239 23.5434
1 52.9727 41.2009 23.5434
1 52.9727 39.239 25.5053
1 51.0107 41.2009 25.5053
1 54.9346 39.239 23.5434
1 56.8966 41.2009 23.5434
1 56.8966 39.239 25.5053
1 54.9346 41.2009 25.5053
1 58.8585 39.239 23.5434
1 60.8205 39.239 25.5053
1 58.8585 41.2009 25.5053
1 43.1629 43.1629 23.5434
1 45.1249 45.1249 23.5434
1 45.1249 43.1629 25.5053
1 43.1629 45.1249 25.5053
1 47.0868 43.1629 23.5434
1 49.0488 45.1249 23.5434
1 49.0488 43.1629 25.5053
1 47.0868 45.1249 25.5053
1 51.0107 43.1629 23.5434
1 52.9727 45.1249 23.5434
1 52.9727 43.1629 25.5053
1 51.0107 45.1249 25.5053
1 54.9346 43.1629 23.5434
1 56.8966 45.1249 23.5434
1 56.8966 43.1629 25.5053
1 54.9346 45.1249 25.5053
1 58.8585 43.1629 23.5434
1 58.8585 45.1249 25.5053
1 45.1249 47.0868 25.5053
1 47.0868 47.0868 23.5434
1 49.0488 47.0868 25.5053
1 51.0107 47.0868 23.5434
1 52.9727 47.0868 25.5053
1 51.0107 49.0488 25.5053
1 54.9346 47.0868 23.5434
1 56.8966 47.0868 25.5053
1 49.0488 29.4292 27.4673
1 47.0868 29.4292 29.4292
1 52.9727 29.4292 27.4673
1 51.0107 29.4292 29.4292
1 54.9346 29.4292 29.4292
1 43.1629 31.3912 27.4673
1 45.1249 33.3531 27.4673
1 45.1249 31.3912 29.4292
1 43.1629 33.3531 29.4292
1 47.0868 31.3912 27.4673
1 49.0488 33.3531 27.4673
1 49.0488 31.3912 29.4292
1 47.0868 33.3531 29.4292
1 51.0107 31.3912 27.4673
1 52.9727 33.3531 27.4673
1 52.9727 31.3912 29.4292
1 51.0107 33.3531 29.4292
1 54.9346 31.3912 27.4673
1 56.8966 33.3531 27.4673
1 56.8966 31.3912 29.4292
1 54.9346 33.3531 29.4292
1 58.8585 31.3912 27.4673
1 58.8585 33.3531 29.4292
1 41.2009 37.2771 27.4673
1 41.2009 35.3151 29.4292
1 43.1629 35.3151 27.4673
1 45.1249 37.2771 27.4673
1 45.1249 35.3151 29.4292
1 43.1629 37.2771 29.4292
1 47.0868 35.3151 27.4673
1 49.0488 37.2771 27.4673
1 49.0488 35.3151 29.4292
1 47.0868 37.2771 29.4292
1 51.0107 35.3151 27.4673
1 52.9727 37.2771 27.4673
1 52.9727 35.3151 29.4292
1 51.0107 37.2771 29.4292
1 54.9346 35.3151 27.4673
1 56.8966 37.2771 27.4673
1 56.8966 35.3151 29.4292
1 54.9346 37.2771 29.4292
1 58.8585 35.3151 27.4673
1 60.8205 37.2771 27.4673
1 60.8205 35.3151 29.4292
1 58.8585 37.2771 29.4292
1 41.2009 41.2009 27.4673
1 41.2009 39.239 29.4292
1 43.1629 39.239 27.4673
1 45.1249 41.2009 27.4673
1 45.1249 39.239 29.4292
1 43.1629 41.2009 29.4292
1 47.0868 39.239 27.4673
1 49.0488 41.2009 27.4673
1 49.0488 39.239 29.4292
1 47.0868 41.2009 29.4292
1 51.0107 39.239 27.4673
1 52.9727 41.2009 27.4673
1 52.9727 39.239 29.4292
1 51.0107 41.2009 29.4292
1 54.9346 39.239 27.4673
1 56.8966 41.2009 27.4673
1 56.8966 39.239 29.4292
1 54.9346 41.2009 29.4292
1 58.8585 39.239 27.4673
1 60.8205 41.2009 27.4673
1 60.8205 39.239 29.4292
1 58.8585 41.2009 29.4292
1 41.2009 43.1629 29.4292
1 43.1629 43.1629 27.4673
1 45.1249 45.1249 27.4673
1 45.1249 43.1629 29.4292
1 43.1629 45.1249 29.4292
1 47.0868 43.1629 27.4673
1 49.0488 45.1249 27.4673
1 49.0488 43.1629 29.4292
1 47.0868 45.1249 29.4292
1 51.0107 43.1629 27.4673
1 52.9727 45.1249 27.4673
1 52.9727 43.1629 29.4292
1 51.0107 45.1249 29.4292
1 54.9346 43.1629 27.4673
1 56.8966 45.1249 27.4673
1 56.8966 43.1629 29.4292
1 54.9346 45.1249 29.4292
1 58.8585 43.1629 27.4673
1 60.8205 43.1629 29.4292
1 58.8585 45.1249 29.4292
1 43.1629 47.0868 27.4673
1 45.1249 47.0868 29.4292
1 47.0868 47.0868 27.4673
1 49.0488 49.0488 27.4673
1 49.0488 47.0868 29.4292
1 47.0868 49.0488 29.4292
1 51.0107 47.0868 27.4673
1 52.9727 49.0488 27.4673
1 52.9727 47.0868 29.4292
1 51.0107 49.0488 29.4292
1 54.9346 47.0868 27.4673
1 56.8966 47.0868 29.4292
1 54.9346 49.0488 29.4292
1 58.8585 47.0868 27.4673
1 45.1249 29.4292 31.3912
1 49.0488 29.4292 31.3912
1 47.0868 29.4292 33.3531
1 52.9727 29.4292 31.3912
1 51.0107 29.4292 33.3531
1 56.8966 29.4292 31.3912
1 54.9346 29.4292 33.3531
1 41.2009 33.3531 31.3912
1 43.1629 31.3912 31.3912
1 45.1249 33.3531 31.3912
1 45.1249 31.3912 33.3531
1 43.1629 33.3531 33.3531
1 47.0868 31.3912 31.3912
1 49.0488 33.3531 31.3912
1 49.0488 31.3912 33.3531
1 47.0868 33.3531 33.3531
1 51.0107 31.3912 31.3912
1 52.9727 33.3531 31.3912
1 52.9727 31.3912 33.3531
1 51.0107 33.3531 33.3531
1 54.9346 31.3912 31.3912
1 56.8966 33.3531 31.3912
1 56.8966 31.3912 33.3531
1 54.9346 33.3531 33.3531
1 58.8585 31.3912 31.3912
1 60.8205 33.3531 31.3912
1 58.8585 33.3531 33.3531
1 41.2009 37.2771 31.3912
1 41.2009 35.3151 33.3531
1 43.1629 35.3151 31.3912
1 45.1249 37.2771 31.3912
1 45.1249 35.3151 33.3531
1 43.1629 37.2771 33.3531
1 47.0868 35.3151 31.3912
1 49.0488 37.2771 31.3912
1 49.0488 35.3151 33.3531
1 47.0868 37.2771 33.3531
1 51.0107 35.3151 31.3912
1 52.9727 37.2771 31.3912
1 52.9727 35.3151 33.3531
1 51.0107 37.2771 33.3531
1 54.9346 35.3151 31.3912
1 56.8966 37.2771 31.3912
1 56.8966 35.3151 33.3531
1 54.9346 37.2771 33.3531
1 58.8585 35.3151 31.3912
1 60.8205 37.2771 31.3912
1 60.8205 35.3151 33.3531
1 58.8585 37.2771 33.3531
1 39.239 39.239 31.3912
1 41.2009 41.2009 31.3912
1 41.2009 39.239 33.3531
1 43.1629 39.239 31.3912
1 45.1249 41.2009 31.3912
1 45.1249 39.239 33.3531
1 43.1629 41.2009 33.3531