LAMMPS (2 Aug 2023 - Update 3)
OMP_NUM_THREADS environment is not set. Defaulting to 1 thread. (src/comm.cpp:98)
  using 1 OpenMP thread(s) per MPI task
units lj
boundary p p p
atom_style atomic

lattice fcc 1.073
Lattice spacing in x,y,z = 1.5505535 1.5505535 1.5505535
region box block 0 10 0 10 0 10
create_box 1 box
Created orthogonal box = (0 0 0) to (15.505535 15.505535 15.505535)
  1 by 1 by 1 MPI processor grid
create_atoms 1 box
Created 4000 atoms
  using lattice units in orthogonal box = (0 0 0) to (15.505535 15.505535 15.505535)
  create_atoms CPU = 0.002 seconds
mass 1 1.0

pair_style lj/cut 2.5
pair_coeff 1 1 1.0 1.0 2.5
velocity all create 0.01 87287

timestep 0.005

# Equilibrium step
fix 1 all nvt temp 0.01 0.01 0.2
run 50000
Generated 0 of 0 mixed pair_coeff terms from geometric mixing rule
Neighbor list info ...
  update: every = 1 steps, delay = 0 steps, check = yes
  max neighbors/atom: 2000, page size: 100000
  master list distance cutoff = 2.8
  ghost atom cutoff = 2.8
  binsize = 1.4, bins = 12 12 12
  1 neighbor lists, perpetual/occasional/extra = 1 0 0
  (1) pair lj/cut, perpetual
      attributes: half, newton on
      pair build: half/bin/atomonly/newton
      stencil: half/bin/3d
      bin: standard
Per MPI rank memory allocation (min/avg/max) = 3.722 | 3.722 | 3.722 Mbytes
   Step          Temp          E_pair         E_mol          TotEng         Press     
         0   0.01          -8.0995117      0             -8.0845154     -0.11641384   
     50000   0.0099593514  -8.0845029      0             -8.0695676     -0.030798546  
Loop time of 109.436 on 1 procs for 50000 steps with 4000 atoms

Performance: 197376.142 tau/day, 456.889 timesteps/s, 1.828 Matom-step/s
100.0% CPU use with 1 MPI tasks x 1 OpenMP threads

MPI task timing breakdown:
Section |  min time  |  avg time  |  max time  |%varavg| %total
---------------------------------------------------------------
Pair    | 104.07     | 104.07     | 104.07     |   0.0 | 95.09
Neigh   | 0          | 0          | 0          |   0.0 |  0.00
Comm    | 1.4053     | 1.4053     | 1.4053     |   0.0 |  1.28
Output  | 3.8732e-05 | 3.8732e-05 | 3.8732e-05 |   0.0 |  0.00
Modify  | 3.0221     | 3.0221     | 3.0221     |   0.0 |  2.76
Other   |            | 0.941      |            |       |  0.86

Nlocal:           4000 ave        4000 max        4000 min
Histogram: 1 0 0 0 0 0 0 0 0 0
Nghost:           5841 ave        5841 max        5841 min
Histogram: 1 0 0 0 0 0 0 0 0 0
Neighs:         172000 ave      172000 max      172000 min
Histogram: 1 0 0 0 0 0 0 0 0 0

Total # of neighbors = 172000
Ave neighs/atom = 43
Neighbor list builds = 0
Dangerous builds = 0
unfix 1

# Heating step
reset_timestep 0
thermo 1000
thermo_style custom step temp pe etotal press vol
fix 1 all npt temp 0.01 0.85 1.0 iso 0 0 1.0
dump 1 all atom 10000 fusion.lammpstrj
run 1000000
Generated 0 of 0 mixed pair_coeff terms from geometric mixing rule
Per MPI rank memory allocation (min/avg/max) = 3.722 | 3.722 | 3.722 Mbytes
   Step          Temp          PotEng         TotEng         Press          Volume    
         0   0.0099593514  -8.0845029     -8.0695676     -0.030798546    3727.8658    
      1000   0.010664673   -8.0835731     -8.0675801     -0.0054213788   3726.8244    
      2000   0.011630382   -8.0824071     -8.0649659      0.0087584427   3726.4809    
      3000   0.01257189    -8.081295      -8.0624418      0.017595275    3726.4006    
      4000   0.012858184   -8.0792153     -8.0599329      0.022458308    3726.798     
      5000   0.013886859   -8.0782178     -8.0573927      0.0062535946   3728.0323    
      6000   0.014917219   -8.0772287     -8.0548584     -0.005498713    3729.0197    
      7000   0.015766205   -8.0759704     -8.052327      -0.015441373    3729.9967    
      8000   0.016504817   -8.0745396     -8.0497886     -0.028767523    3731.2014    
      9000   0.017539083   -8.0735425     -8.0472405     -0.043332165    3732.3472    
     10000   0.018102661   -8.071864      -8.0447168     -0.034350036    3732.4184    
     11000   0.019069465   -8.0707628     -8.0421658     -0.027127104    3732.4139    
     12000   0.019845757   -8.0693618     -8.0396007     -0.027640303    3732.9031    
     13000   0.020782523   -8.0682133     -8.0370473     -0.012126888    3732.4782    
     14000   0.021622096   -8.0669566     -8.0345316     -0.013348197    3733.0008    
     15000   0.0223433     -8.0654419     -8.0319353     -0.02582877     3734.163     
     16000   0.023137123   -8.0640608     -8.0293638     -0.015594291    3734.0737    
     17000   0.024101177   -8.0629725     -8.0268298     -0.0033710018   3733.7879    
     18000   0.025119459   -8.0619354     -8.0242656     -0.0088325758   3734.469     
     19000   0.025848972   -8.0603856     -8.0216218      0.012997019    3733.7823    
     20000   0.026798201   -8.0592146     -8.0190274      0.044692796    3732.4651    
     21000   0.027423686   -8.0575633     -8.016438       0.0054056192   3735.1322    
     22000   0.028200164   -8.0562385     -8.0139488     -0.024021329    3737.2056    
     23000   0.029367306   -8.0553578     -8.0113179     -0.030610062    3737.8841    
     24000   0.029861426   -8.0533817     -8.0086008      0.020462558    3735.7142    
     25000   0.03069846    -8.0517642     -8.005728       0.0087332991   3736.8583    
     26000   0.031483874   -8.0502121     -8.0029981     -0.046647653    3740.3789    
     27000   0.032646175   -8.0492048     -8.0002478      0.014360394    3737.4337    
     28000   0.033623772   -8.0478973     -7.9974743     -0.0041400045   3738.8866    
     29000   0.034176561   -8.0462357     -7.9949837      0.0048909675   3738.9162    
     30000   0.035054237   -8.0453552     -7.992787      -0.0010535581   3739.5654    
     31000   0.036035312   -8.0433091     -7.9892696     -7.9092347e-05  3740.1381    
     32000   0.035767492   -8.0427928     -7.989155      -0.014977412    3741.1346    
     33000   0.038277244   -8.0413243     -7.9839228      0.028291284    3739.3291    
     34000   0.037997812   -8.0390465     -7.9820641     -0.024972032    3742.8417    
     35000   0.039561873   -8.0387224     -7.9793944      0.020413744    3740.5937    
     36000   0.040600909   -8.0375978     -7.9767117      0.010455411    3741.5131    
     37000   0.040973854   -8.035512      -7.9740666     -0.0042769766   3742.9698    
     38000   0.041719677   -8.0335142     -7.9709503     -0.0030687575   3743.4989    
     39000   0.042717224   -8.0333908     -7.969331       0.01204861     3742.7357    
     40000   0.043749997   -8.0304453     -7.9648367      0.046353429    3741.8185    
     41000   0.044369529   -8.0281113     -7.9615736      0.019014599    3744.0327    
     42000   0.04600905    -8.0285853     -7.959589       0.0041850034   3744.791     
     43000   0.04656359    -8.0254156     -7.9555877     -0.0011651131   3745.9216    
     44000   0.046422609   -8.0234912     -7.9538747     -0.0017233485   3746.5193    
     45000   0.047472095   -8.0216857     -7.9504954      0.0077056235   3746.6315    
     46000   0.049226227   -8.021183      -7.9473621      0.048918154    3744.6282    
     47000   0.050803858   -8.0204888     -7.9443021      0.030377578    3745.9098    
     48000   0.048689124   -8.0184296     -7.9454142      0.0022808498   3747.8799    
     49000   0.051168463   -8.0156942     -7.9389607     -0.039947823    3751.0599    
     50000   0.052281398   -8.0142851     -7.9358826     -0.0050863043   3749.6437    
     51000   0.052787328   -8.0151917     -7.9360305      0.033363545    3747.3789    
     52000   0.053262046   -8.0110423     -7.9311692     -0.020254354    3751.5088    
     53000   0.055918243   -8.0114517     -7.9275953     -0.0026712921   3750.5373    
     54000   0.055095334   -8.0084977     -7.9258754      0.039846276    3748.8945    
     55000   0.056648247   -8.0049734     -7.9200222     -0.011162884    3752.8141    
     56000   0.056563755   -8.0046833     -7.9198589     -0.00024143837  3752.3342    
     57000   0.059127241   -8.0033828     -7.9147142      0.0088221245   3752.3107    
     58000   0.059060435   -8.0026468     -7.9140783     -0.034623609    3754.9404    
     59000   0.059778787   -8.0007727     -7.9111269      0.012771548    3752.9445    
     60000   0.060897843   -7.9995366     -7.9082126     -0.00781544     3754.4421    
     61000   0.060714278   -7.9955454     -7.9044967     -0.0084167859   3755.5543    
     62000   0.062216945   -7.9959408     -7.9026387      0.049567915    3752.4397    
     63000   0.062886129   -7.9919217     -7.8976161      0.0077385568   3755.8464    
     64000   0.06404266    -7.9933112     -7.8972712      0.0042397317   3755.6747    
     65000   0.065692148   -7.9887848     -7.8902712     -0.012716395    3757.9479    
     66000   0.064136056   -7.9854342     -7.8892542     -0.061659221    3761.3847    
     67000   0.067564221   -7.9871238     -7.8858028     -0.034002993    3759.6574    
     68000   0.068227029   -7.9880115     -7.8856966     -0.033899313    3759.3811    
     69000   0.068479835   -7.9828734     -7.8801794     -0.032464742    3760.9276    
     70000   0.068452496   -7.9793004     -7.8766473     -0.1018035      3765.538     
     71000   0.069914024   -7.977908      -7.8730632     -0.050788225    3763.2521    
     72000   0.068616884   -7.9787963     -7.8758967     -0.0032020988   3760.4099    
     73000   0.069840893   -7.9785486     -7.8738134      0.025966488    3758.9538    
     74000   0.071669766   -7.9756341     -7.8681563      0.023525483    3760.0613    
     75000   0.071562898   -7.9756822     -7.8683647     -0.030370606    3762.9733    
     76000   0.074412821   -7.9718642     -7.8602728     -0.078534994    3766.7163    
     77000   0.073508323   -7.9717512     -7.8615163      0.032102572    3760.7527    
     78000   0.076097393   -7.97081       -7.8566924     -0.009382843    3763.3774    
     79000   0.076639664   -7.9664384     -7.8515077     -0.034306122    3765.8439    
     80000   0.077091563   -7.9682672     -7.8526588      0.025353589    3762.2425    
     81000   0.077764397   -7.9650314     -7.8484139     -0.058587326    3767.6937    
     82000   0.076765577   -7.9630136     -7.847894       0.053770922    3762.2311    
     83000   0.078590749   -7.9611903     -7.8433336     -0.056800214    3768.8064    
     84000   0.080479915   -7.960648      -7.8399583      0.016117645    3765.0459    
     85000   0.081948718   -7.9574815     -7.8345892     -0.012411766    3767.6246    
     86000   0.081683167   -7.9579738     -7.8354797     -0.023486371    3767.9387    
     87000   0.083761106   -7.9572171     -7.8316069      0.036973001    3765.0841    
     88000   0.082339162   -7.9533697     -7.8298918     -0.058169897    3771.1073    
     89000   0.084121615   -7.9478054     -7.8216545     -0.063169987    3773.1109    
     90000   0.084578599   -7.9511047     -7.8242685      0.047998391    3766.3561    
     91000   0.086216543   -7.9520952     -7.8228028      0.031600405    3766.9824    
     92000   0.08853463    -7.9458202     -7.8130514     -0.02291353     3771.7147    
     93000   0.089029394   -7.9452405     -7.8117297     -0.026990522    3772.111     
     94000   0.088078416   -7.9431252     -7.8110406     -0.019019747    3772.2862    
     95000   0.088292963   -7.945521      -7.8131146     -0.0053618921   3771.0236    
     96000   0.09128022    -7.9385091     -7.801623       0.024119991    3771.4525    
     97000   0.09025592    -7.9385318     -7.8031817      0.014624778    3771.9807    
     98000   0.094209857   -7.9415549     -7.8002754      0.065709257    3768.6751    
     99000   0.092767807   -7.9349284     -7.7958115      0.077622179    3769.576     
    100000   0.093591158   -7.9314826     -7.791131       0.054688839    3771.8838    
    101000   0.095189926   -7.9332554     -7.7905062      0.0064442488   3774.0052    
    102000   0.09479867    -7.9255707     -7.7834083     -0.078936927    3780.7452    
    103000   0.095625091   -7.9230939     -7.7796921     -0.032218288    3779.022     
    104000   0.097360493   -7.9238344     -7.7778301     -0.028359842    3778.5443    
    105000   0.099523167   -7.9237806     -7.7745332      0.040954598    3774.9148    
    106000   0.10051612    -7.9233393     -7.7726028      0.021497695    3776.3298    
    107000   0.10146884    -7.9190327     -7.7668675     -0.023659235    3779.8841    
    108000   0.10076239    -7.9166958     -7.76559       -0.032161897    3781.0502    
    109000   0.09996851    -7.916894      -7.7669787      0.036553898    3777.2707    
    110000   0.10152731    -7.9215269     -7.769274      -0.020911089    3779.2096    
    111000   0.10368169    -7.9123544     -7.7568708     -0.0090574438   3781.273     
    112000   0.10419293    -7.9114941     -7.7552438      0.05683009     3777.8856    
    113000   0.10332041    -7.9059331     -7.7509913     -0.054515909    3785.5043    
    114000   0.10558529    -7.9141965     -7.7558581      0.080341819    3776.0724    
    115000   0.10730098    -7.9008427     -7.7399315     -0.072831922    3788.1621    
    116000   0.10878309    -7.9090993     -7.7459654      0.059433624    3778.8237    
    117000   0.10802629    -7.9013915     -7.7393926     -0.089411786    3788.7613    
    118000   0.10773157    -7.9049804     -7.7434234      0.083734649    3778.5174    
    119000   0.10997657    -7.8990991     -7.7341754     -0.040547233    3786.981     
    120000   0.11189157    -7.8908255     -7.7230301      0.030261302    3785.5559    
    121000   0.11237879    -7.8960547     -7.7275287      0.01654961     3784.8881    
    122000   0.11265337    -7.8954038     -7.726466      -0.029734221    3787.678     
    123000   0.11361231    -7.8963809     -7.7260051      0.013693627    3785.0859    
    124000   0.11358139    -7.8900911     -7.7197616      0.039790276    3785.4314    
    125000   0.11315678    -7.8833857     -7.7136929     -0.01624052     3790.3229    
    126000   0.11545049    -7.8890061     -7.7158737     -0.045669874    3790.411     
    127000   0.11915917    -7.8844251     -7.705731       0.025107751    3788.0536    
    128000   0.1182167     -7.884343      -7.7070623      0.04792403     3786.9254    
    129000   0.11742928    -7.883828      -7.7077281      0.0048452375   3789.3955    
    130000   0.11789962    -7.8856095     -7.7088043     -0.036083713    3791.0013    
    131000   0.11987874    -7.8751335     -7.6953603     -0.023946028    3793.5056    
    132000   0.12103128    -7.8812618     -7.6997603     -0.035298285    3792.4788    
    133000   0.12095947    -7.8812753     -7.6998815      0.0015840067   3790.3841    
    134000   0.12239736    -7.8778114     -7.6942613      0.019632999    3790.508     
    135000   0.1233018     -7.87263       -7.6877235      0.034665039    3791.231     
    136000   0.12562451    -7.8704948     -7.6821051      0.057890344    3790.8416    
    137000   0.12261284    -7.8687108     -7.6848375      0.10330931     3788.6031    
    138000   0.12426631    -7.8726706     -7.6863177      0.044383919    3790.6482    
    139000   0.1281877     -7.8657662     -7.6735328      0.014518       3794.4219    
    140000   0.12429786    -7.8630308     -7.6766307      0.0066708507   3795.5693    
    141000   0.12982266    -7.8632049     -7.6685196     -0.0087843532   3796.6229    
    142000   0.12802546    -7.8620022     -7.6700121     -0.015049232    3797.1128    
    143000   0.12993633    -7.8564632     -7.6616075     -0.073266226    3801.9842    
    144000   0.1325031     -7.8620959     -7.6633909     -0.047094325    3799.1081    
    145000   0.13074317    -7.8526585     -7.6565928      0.0078868914   3798.8164    
    146000   0.13220036    -7.8562255     -7.6579745      0.088024967    3793.4378    
    147000   0.13488122    -7.8496494     -7.6473782      0.0045252838   3800.0331    
    148000   0.13410273    -7.8459121     -7.6448083     -0.029803923    3803.153     
    149000   0.13434116    -7.8462649     -7.6448036     -0.023777765    3802.6424    
    150000   0.13210699    -7.8481165     -7.6500056      0.099270323    3795.2149    
    151000   0.13928772    -7.840643      -7.6317636     -0.024487661    3804.419     
    152000   0.13794792    -7.84262       -7.6357498     -0.054928774    3805.5075    
    153000   0.13727524    -7.8453937     -7.6395324      0.010272465    3801.1765    
    154000   0.13452042    -7.8379198     -7.6361896      5.4636924e-05  3803.7501    
    155000   0.13970771    -7.8336155     -7.6241063     -0.048509653    3807.7478    
    156000   0.13968951    -7.8350977     -7.6256159      0.059577841    3801.5066    
    157000   0.13991548    -7.825759      -7.6159382     -0.1016055      3813.13      
    158000   0.14355814    -7.8322726     -7.6169892      0.02793911     3804.4178    
    159000   0.14752591    -7.8371042     -7.6158707     -0.0046559087   3804.9855    
    160000   0.14056271    -7.8312126     -7.6204212      0.0022043247   3805.7509    
    161000   0.14562347    -7.8243773     -7.6059967      0.0024617558   3808.174     
    162000   0.14344134    -7.8199671     -7.6048589     -0.040168271    3811.5423    
    163000   0.1461994     -7.8206697     -7.6014254      0.016267609    3808.4147    
    164000   0.1467497     -7.8182634     -7.5981939      0.010359224    3809.5118    
    165000   0.14949131    -7.8179945     -7.5938136     -0.01532749     3811.1115    
    166000   0.14928216    -7.8254248     -7.6015575      0.052646609    3805.0594    
    167000   0.1493982     -7.8139379     -7.5898967     -0.026617242    3812.9081    
    168000   0.15215414    -7.816995      -7.5888209      0.080291192    3806.3307    
    169000   0.15334914    -7.8124821     -7.5825159     -0.018659236    3813.1709    
    170000   0.14971563    -7.813621      -7.5891037     -0.012023918    3812.255     
    171000   0.15529482    -7.8108013     -7.5779173      0.063935508    3809.1726    
    172000   0.15652218    -7.8102102     -7.5754856     -0.019616445    3814.2556    
    173000   0.15348029    -7.8034504     -7.5732875      0.0087887825   3814.4241    
    174000   0.15465464    -7.8134838     -7.5815599      0.027187277    3810.5696    
    175000   0.15415665    -7.8000069     -7.5688297     -0.038635004    3818.1205    
    176000   0.15429049    -7.7926213     -7.5612434     -0.02328807     3819.2998    
    177000   0.15917308    -7.7991073     -7.5604074      0.051121475    3813.4131    
    178000   0.1564654     -7.800035      -7.5653955      0.027899883    3814.447     
    179000   0.16013398    -7.8056803     -7.5655394     -0.0098158983   3815.2218    
    180000   0.1614361     -7.7918016     -7.549708      -0.11534082     3825.1091    
    181000   0.16239499    -7.7868786     -7.543347      -0.038738621    3822.4339    
    182000   0.16186289    -7.7930081     -7.5502745      0.030107234    3816.7338    
    183000   0.16072273    -7.7962435     -7.5552196      0.085329444    3812.7734    
    184000   0.16445443    -7.7864697     -7.5398497      0.039135342    3818.4803    
    185000   0.16515602    -7.79315       -7.5454779      0.033880331    3816.5347    
    186000   0.16489678    -7.7886288     -7.5413455      0.010335171    3819.3096    
    187000   0.16343495    -7.7817643     -7.5366731      0.012634605    3821.3071    
    188000   0.16707598    -7.7789448     -7.5283935     -0.050561084    3825.7314    
    189000   0.16926281    -7.7736265     -7.5197957     -0.0095008924   3825.1207    
    190000   0.17098872    -7.7741049     -7.5176859     -0.086642785    3829.4033    
    191000   0.16714962    -7.7697577     -7.5190959     -0.04949531     3828.253     
    192000   0.16900112    -7.7658011     -7.5123628     -0.057462713    3830.165     
    193000   0.17411365    -7.7715986     -7.5104934     -0.049026632    3828.2263    
    194000   0.16983954    -7.7752566     -7.520561      -0.048772857    3826.9846    
    195000   0.17451936    -7.7769051     -7.5151915     -0.023026545    3825.2407    
    196000   0.17223062    -7.7651509     -7.5068695     -0.036774797    3829.2984    
    197000   0.17595404    -7.760864      -7.496999      -0.052510241    3831.5403    
    198000   0.17821733    -7.761316      -7.4940569     -0.026467236    3830.272     
    199000   0.17607134    -7.754729      -7.490688       0.061629298    3827.2211    
    200000   0.17741989    -7.7548248     -7.4887615      0.032381829    3828.9539    
    201000   0.17924576    -7.7586548     -7.4898533      0.041510562    3827.3455    
    202000   0.17800811    -7.7584655     -7.4915201     -0.012846622    3830.4023    
    203000   0.17699825    -7.7535144     -7.4880834     -0.055576984    3834.1741    
    204000   0.18000621    -7.7567969     -7.4868551     -0.025907068    3831.656     
    205000   0.17862145    -7.7522672     -7.484402       0.025515957    3830.1656    
    206000   0.18442361    -7.7564954     -7.4799292     -0.010915736    3831.1963    
    207000   0.18405594    -7.7508213     -7.4748064     -0.01746403     3833.3601    
    208000   0.18376493    -7.733155      -7.4575765      0.012331609    3836.8291    
    209000   0.1846181     -7.734884      -7.458026       0.021713354    3835.9151    
    210000   0.18854364    -7.7429839     -7.4602391     -0.18292577     3845.0377    
    211000   0.18764714    -7.7423158     -7.4609155      0.030792112    3833.354     
    212000   0.19028477    -7.7421718     -7.456816       0.086284952    3830.348     
    213000   0.1907059     -7.7357563     -7.449769      -0.067721739    3840.9433    
    214000   0.18686529    -7.7352798     -7.455052       0.016834684    3836.409     
    215000   0.18568631    -7.739691      -7.4612311      0.0088938351   3835.357     
    216000   0.19372799    -7.7326948     -7.4421754     -0.0052374212   3838.674     
    217000   0.19413744    -7.7320623     -7.4409289      0.064577979    3834.9837    
    218000   0.18587908    -7.7335065     -7.4547576     -0.072922743    3841.6836    
    219000   0.19270678    -7.7227875     -7.4337996      0.056016138    3838.1935    
    220000   0.19530385    -7.7241934     -7.4313109     -0.033877174    3843.0817    
    221000   0.19785127    -7.722893      -7.4261903      0.020408928    3840.5478    
    222000   0.19732437    -7.7257108     -7.4297982     -0.022520356    3841.8297    
    223000   0.19273384    -7.727703      -7.4386745      0.0062046508   3839.5384    
    224000   0.199799      -7.7172425     -7.417619      -0.073059293    3847.7307    
    225000   0.19997141    -7.7140069     -7.4141248      0.11950331     3837.5741    
    226000   0.19271808    -7.7203201     -7.4313152     -0.057590557    3845.4031    
    227000   0.2041928     -7.7169276     -7.4107149      0.057551889    3840.3225    
    228000   0.20220937    -7.7103498     -7.4071115     -0.084895978    3850.3046    
    229000   0.20416048    -7.712225      -7.4060608      0.032133357    3843.2853    
    230000   0.20352583    -7.7054201     -7.4002076      0.0042246773   3847.1555    
    231000   0.21053044    -7.709181      -7.3934643     -0.037011145    3848.5798    
    232000   0.20707648    -7.7065852     -7.3960482      0.10827112     3840.8866    
    233000   0.20454838    -7.6984645     -7.3917186     -0.085157688    3854.1419    
    234000   0.20164098    -7.6989466     -7.3965608     -0.01887798     3850.4307    
    235000   0.20498039    -7.7025206     -7.3951269      0.099643676    3842.5769    
    236000   0.20705389    -7.6947719     -7.3842688     -0.057292564    3854.1931    
    237000   0.20773428    -7.6917531     -7.3802296     -0.050560275    3854.6657    
    238000   0.20541706    -7.6976722     -7.3896237      0.033869267    3847.8031    
    239000   0.20768896    -7.69918       -7.3877245      0.0068321858   3848.9578    
    240000   0.21019046    -7.6828306     -7.3676237     -0.069310575    3858.586     
    241000   0.21395273    -7.6845368     -7.363688      -0.040086904    3856.5967    
    242000   0.21496751    -7.6845038     -7.3621332      0.02074995     3853.318     
    243000   0.21872403    -7.6880609     -7.3600569      0.023696481    3852.2932    
    244000   0.21704239    -7.6858011     -7.3603189      0.015064954    3853.2706    
    245000   0.21442312    -7.6822679     -7.3607136     -0.034918977    3857.0999    
    246000   0.21329868    -7.6801778     -7.3603098     -0.030566973    3857.2993    
    247000   0.21338299    -7.6763619     -7.3563675     -0.057768408    3860.1106    
    248000   0.21638561    -7.6759696     -7.3514724      0.015443093    3856.3925    
    249000   0.22037296    -7.6759978     -7.345521       0.090329636    3852.2491    
    250000   0.2227637     -7.6795632     -7.3455012      0.083030727    3851.7302    
    251000   0.22266371    -7.663957      -7.3300449      0.012919935    3860.334     
    252000   0.22366286    -7.6711033     -7.3356928      0.00018100871  3859.2724    
    253000   0.22091984    -7.6735569     -7.34226       -0.010164627    3858.6869    
    254000   0.21974204    -7.6677172     -7.3381865     -0.10710771     3866.0227    
    255000   0.22434519    -7.6615051     -7.3250714     -0.047584384    3864.8105    
    256000   0.22760955    -7.6629449     -7.3216159     -0.047885656    3864.6394    
    257000   0.22146153    -7.670384      -7.3382748     -0.073401517    3863.4858    
    258000   0.23048264    -7.661704      -7.3160665     -0.024036764    3863.9446    
    259000   0.22553752    -7.6512132     -7.3129915     -0.030949198    3867.1082    
    260000   0.22980805    -7.6597555     -7.3151297     -0.11527942     3869.8391    
    261000   0.22442886    -7.6590764     -7.3225173     -0.034488257    3864.8508    
    262000   0.22722029    -7.6531437     -7.3123985     -0.04145818     3867.1771    
    263000   0.23081098    -7.6480909     -7.301961      -0.053392822    3869.8415    
    264000   0.23313222    -7.6450374     -7.2954265     -0.043568617    3870.4309    
    265000   0.23126652    -7.6537965     -7.3069835      0.017225953    3864.1067    
    266000   0.23048135    -7.6399386     -7.294303       0.089776722    3864.0257    
    267000   0.23482744    -7.6457238     -7.2935707      0.093941717    3862.4147    
    268000   0.23774537    -7.6468005     -7.2902716      0.035257301    3865.419     
    269000   0.23004413    -7.6432602     -7.2982803     -0.055073294    3871.4425    
    270000   0.23817444    -7.6449442     -7.2877718     -0.12572919     3875.3788    
    271000   0.23861917    -7.6380572     -7.2802179     -0.01349846     3871.1984    
    272000   0.24131728    -7.6379661     -7.2760807      0.040179758    3868.5005    
    273000   0.23507342    -7.6378557     -7.2853337      0.066867018    3866.4152    
    274000   0.23657194    -7.6328263     -7.2780571      0.033272976    3870.0743    
    275000   0.24447312    -7.6308535     -7.2642355     -0.12956265     3880.7144    
    276000   0.241519      -7.6284054     -7.2662175     -0.011907507    3874.623     
    277000   0.24157562    -7.6366828     -7.27441        0.054754376    3867.6973    
    278000   0.2444658     -7.6253387     -7.2587316      0.028545187    3873.2972    
    279000   0.23690047    -7.6224359     -7.267174      -0.041142972    3877.7948    
    280000   0.24440357    -7.6342629     -7.2677492     -0.0048622006   3872.0249    
    281000   0.24567906    -7.624988      -7.2565615      0.035858752    3872.8077    
    282000   0.25024471    -7.6203737     -7.2451005     -0.1037456      3882.8841    
    283000   0.2507407     -7.6179668     -7.2419497      0.044758676    3875.1394    
    284000   0.24749587    -7.6053844     -7.2342334      0.012179442    3881.0222    
    285000   0.2565811     -7.611905      -7.2271296     -0.016784127    3880.837     
    286000   0.25549928    -7.6082095     -7.2250564      0.024980767    3879.4654    
    287000   0.24876625    -7.6042743     -7.2312182     -0.030607406    3883.7342    
    288000   0.24752278    -7.606826      -7.2356347      0.050200887    3878.021     
    289000   0.25576549    -7.6129902     -7.2294378     -0.046723767    3881.9792    
    290000   0.2534445     -7.600116      -7.2200443      0.0023133696   3883.4233    
    291000   0.25759339    -7.5918676     -7.2055741     -0.010042754    3887.0776    
    292000   0.25799334    -7.603641      -7.2167478      0.080086303    3877.9798    
    293000   0.25668142    -7.6026985     -7.2177727     -0.060612105    3886.4826    
    294000   0.25390083    -7.6032134     -7.2224574      0.090724164    3877.56      
    295000   0.2525197     -7.5955928     -7.216908      -0.14143369     3893.3388    
    296000   0.25788044    -7.5931231     -7.2063991      0.10241646     3879.9722    
    297000   0.25849322    -7.5908554     -7.2032125     -0.011034235    3887.7255    
    298000   0.25211778    -7.5840144     -7.2059322      0.10724067     3882.0733    
    299000   0.26610005    -7.5934179     -7.1943676     -0.066232696    3890.399     
    300000   0.25559425    -7.577456      -7.1941605      0.11263892     3884.3079    
    301000   0.25414427    -7.5833754     -7.2022543     -0.0019433112   3889.253     
    302000   0.25936232    -7.5850506     -7.1961044     -0.025227074    3890.3168    
    303000   0.26178397    -7.5813417     -7.1887639      0.080464267    3885.3154    
    304000   0.26991182    -7.5813842     -7.1766177     -0.095347176    3896.129     
    305000   0.26722542    -7.5824621     -7.1817242      0.058368868    3886.7743    
    306000   0.26115996    -7.5832708     -7.1916288      0.013172963    3888.5982    
    307000   0.26451581    -7.5779839     -7.1813094     -0.12087216     3898.6695    
    308000   0.27145683    -7.5772092     -7.1701258      0.050015052    3889.2586    
    309000   0.26646643    -7.5644447     -7.164845       0.018330558    3894.9837    
    310000   0.26997806    -7.585167      -7.1803011     -0.10272657     3895.5452    
    311000   0.27027205    -7.578231      -7.1729242      0.060094601    3887.8363    
    312000   0.27455405    -7.5791527     -7.1674246      0.078894497    3886.6867    
    313000   0.27359223    -7.567622      -7.1573363     -0.034357161    3897.3923    
    314000   0.27152827    -7.5468281     -7.1396375     -0.069677475    3906.1071    
    315000   0.27747148    -7.5550043     -7.1389012      0.0054285173   3899.3819    
    316000   0.27583778    -7.5509047     -7.1372515      0.12553206     3893.5046    
    317000   0.28215807    -7.5689842     -7.1458529      0.065636075    3891.5179    
    318000   0.27466257    -7.5565208     -7.1446299     -0.058162751    3902.2741    
    319000   0.27726701    -7.5581049     -7.1423083     -0.049707417    3901.6965    
    320000   0.27502544    -7.5424196     -7.1299846     -0.039664395    3905.8918    
    321000   0.28531465    -7.5382476     -7.1103826     -0.077126462    3910.3536    
    322000   0.27733412    -7.5446936     -7.1287964     -0.02759384     3904.6459    
    323000   0.27474052    -7.5445936     -7.1325858      0.053798781    3899.9591    
    324000   0.28915641    -7.5366208     -7.1029946      0.038044015    3903.9052    
    325000   0.28098557    -7.5398967     -7.1185237      0.085687694    3899.4901    
    326000   0.2824564     -7.5470435     -7.1234648      0.056317857    3899.2487    
    327000   0.29158943    -7.5402164     -7.1029416      0.020846133    3904.1619    
    328000   0.28605004    -7.5267625     -7.0977947      0.062935868    3905.6448    
    329000   0.2879951     -7.5352347     -7.10335        0.052868939    3903.6471    
    330000   0.28586982    -7.5375343     -7.1088368      0.016976595    3904.6423    
    331000   0.28937331    -7.5382459     -7.1042945      0.055901354    3902.4762    
    332000   0.29437399    -7.5344125     -7.0929619      0.024026147    3906.0246    
    333000   0.28993819    -7.5216738     -7.0868753      0.065370283    3907.2983    
    334000   0.28947786    -7.533165      -7.0990567      0.064547165    3903.5871    
    335000   0.29426249    -7.5366052     -7.0953218      0.039997744    3904.3411    
    336000   0.29220556    -7.5152475     -7.0770487      0.005787927    3913.3049    
    337000   0.29169428    -7.5266571     -7.0892251     -0.023412102    3911.2792    
    338000   0.2931249     -7.5205428     -7.0809654     -0.10834757     3918.4838    
    339000   0.29099274    -7.5118469     -7.0754669     -0.038157047    3916.854     
    340000   0.30564982    -7.5073592     -7.0489991     -0.039822423    3919.6371    
    341000   0.29334775    -7.5166352     -7.0767235      0.04700408     3910.233     
    342000   0.29897398    -7.5251202     -7.0767714      0.23607806     3896.4054    
    343000   0.30167053    -7.5062466     -7.053854       0.059495304    3913.4685    
    344000   0.29662542    -7.5099177     -7.0650908     -0.0071784799   3915.9879    
    345000   0.30017447    -7.5194992     -7.0693501     -0.07434635     3917.3227    
    346000   0.292456      -7.5092873     -7.070713      -0.077240367    3920.4126    
    347000   0.30215282    -7.5034306     -7.0503146      0.038820376    3916.0982    
    348000   0.30470343    -7.5049262     -7.0479853      0.19514387     3906.1914    
    349000   0.30526473    -7.5159863     -7.0582037      0.030248443    3912.6441    
    350000   0.30249524    -7.5121418     -7.0585124     -0.020211459    3916.5801    
    351000   0.30403776    -7.5014309     -7.0454883      0.0029477199   3918.8203    
    352000   0.30903257    -7.4978939     -7.0344609      0.081435704    3915.6309    
    353000   0.30415262    -7.4809284     -7.0248136     -0.005178716    3926.4142    
    354000   0.30590772    -7.47782       -7.0190731     -0.054907085    3930.3032    
    355000   0.31121168    -7.4873361     -7.0206353      0.10091427     3918.2382    
    356000   0.30494759    -7.4849789     -7.0276718      0.0082600928   3924.0802    
    357000   0.31230443    -7.4978322     -7.0294926     -0.036700842    3922.753     
    358000   0.31041529    -7.4783832     -7.0128767      0.070069318    3922.7015    
    359000   0.31076911    -7.4878462     -7.0218091     -0.013954954    3925.0003    
    360000   0.31719014    -7.4779419     -7.0022756      0.018324446    3926.7166    
    361000   0.31827332    -7.4785319     -7.0012413      0.080247266    3922.5039    
    362000   0.31808844    -7.4863116     -7.0092982     -0.035432871    3927.0085    
    363000   0.3184128     -7.4876247     -7.0101249      0.12891761     3916.7168    
    364000   0.31472603    -7.4549023     -6.9829312     -0.17086603     3946.0953    
    365000   0.31928598    -7.4650697     -6.9862604      0.0387148      3929.8261    
    366000   0.32063177    -7.4705133     -6.9896859     -0.036098473    3932.5506    
    367000   0.31085421    -7.4756331     -7.0094684      0.026704275    3926.6293    
    368000   0.3184011     -7.4636621     -6.9861798     -0.0018511038   3932.8565    
    369000   0.32022745    -7.4671405     -6.9869194     -0.028893837    3933.3392    
    370000   0.31863373    -7.4583808     -6.9805497      0.051385526    3931.2225    
    371000   0.32773062    -7.4637649     -6.9722919     -0.040358508    3935.6169    
    372000   0.3236479     -7.4518018     -6.9664513      0.021758151    3935.9013    
    373000   0.32843396    -7.4555031     -6.9629754     -0.016960259    3937.2143    
    374000   0.32600932    -7.4601133     -6.9712216     -0.017360817    3935.3588    
    375000   0.3305403     -7.4735993     -6.9779128      0.093501173    3924.2427    
    376000   0.329988      -7.4453332     -6.9504749     -0.13740901     3947.8634    
    377000   0.32662269    -7.4567348     -6.9669233      0.10980829     3928.8151    
    378000   0.32977787    -7.4607168     -6.9661736      0.01677192     3933.324     
    379000   0.33197876    -7.4512339     -6.9533902     -0.051911196    3941.2398    
    380000   0.32890829    -7.4444214     -6.9511823      0.079468526    3935.0394    
    381000   0.32839891    -7.4484171     -6.9559419      0.023027413    3936.9722    
    382000   0.33001794    -7.4386661     -6.9437629     -0.13599983     3950.3123    
    383000   0.33268959    -7.4333908     -6.9344811     -0.0028805741   3944.4569    
    384000   0.3326289     -7.4381908     -6.9393721      0.13102136     3934.2099    
    385000   0.32961061    -7.4449686     -6.9506763     -0.033355492    3941.5732    
    386000   0.33886345    -7.4348323     -6.9266642     -0.030233884    3945.4149    
    387000   0.33286722    -7.4221459     -6.9229699      0.091155859    3941.8113    
    388000   0.33908833    -7.429522      -6.9210166      0.04036973     3943.2704    
    389000   0.32825665    -7.4209088     -6.9286469     -0.032154975    3950.0654    
    390000   0.337954      -7.4370582     -6.9302539     -0.070608917    3947.5232    
    391000   0.33608888    -7.4300282     -6.926021      -0.0034156107   3945.8371    
    392000   0.34070155    -7.4241576     -6.913233       0.028831756    3945.8944    
    393000   0.34296738    -7.4115431     -6.8972206      0.13411328     3943.8645    
    394000   0.33788412    -7.4237267     -6.9170272      0.054487843    3944.1412    
    395000   0.33473845    -7.4171282     -6.915146      -0.039063382    3952.2323    
    396000   0.34555686    -7.4190268     -6.9008211     -0.025001866    3951.7117    
    397000   0.34659281    -7.4147679     -6.8950087     -0.12243594     3959.1212    
    398000   0.33958345    -7.416566      -6.9073181     -0.030661196    3952.2382    
    399000   0.34145087    -7.4119594     -6.8999111     -0.013213258    3952.6635    
    400000   0.34615646    -7.4058538     -6.8867489      0.010902396    3953.6129    
    401000   0.34391921    -7.4133826     -6.8976328      0.061418961    3947.6423    
    402000   0.34290053    -7.4180109     -6.9037887      0.11961909     3942.4597    
    403000   0.34896194    -7.4096067     -6.8862946      0.069919257    3948.9641    
    404000   0.34507577    -7.3999162     -6.8824319      0.011955502    3955.8425    
    405000   0.34603245    -7.4143918     -6.8954729      0.087169045    3945.9122    
    406000   0.35225182    -7.4123809     -6.8841353      0.12817571     3944.7781    
    407000   0.34910474    -7.3915054     -6.8679792      0.10842387     3952.5394    
    408000   0.34628477    -7.4027489     -6.8834516      0.12634141     3947.6841    
    409000   0.34657685    -7.4049287     -6.8851934      0.023973461    3953.4418    
    410000   0.3487173     -7.3881295     -6.8651843      0.044832639    3957.8729    
    411000   0.35582698    -7.3903204     -6.8567133      0.026385856    3958.6589    
    412000   0.35964887    -7.3842725     -6.8449341      0.059242105    3958.9489    
    413000   0.35627423    -7.3920871     -6.8578094      0.0076159504   3959.6466    
    414000   0.35376125    -7.382187      -6.8516778     -0.05650912     3966.6597    
    415000   0.35556705    -7.3666772     -6.83346       -0.24126677     3984.063     
    416000   0.35343876    -7.3784068     -6.8483812     -0.132322       3972.8776    
    417000   0.35976725    -7.4021581     -6.8626422      0.10396663     3950.5486    
    418000   0.35531755    -7.3631054     -6.8302623      0.095411306    3964.0443    
    419000   0.35609645    -7.3769812     -6.8429701      0.026786315    3963.6728    
    420000   0.35678041    -7.3664523     -6.8314155     -0.10471919     3975.4757    
    421000   0.36502109    -7.3698383     -6.8224436     -0.010699268    3969.0362    
    422000   0.36332492    -7.3681122     -6.8232611      0.059110153    3964.5314    
    423000   0.36733058    -7.3746872     -6.8238291      0.10740895     3959.706     
    424000   0.35272206    -7.3623694     -6.8334186     -0.058661143    3973.7386    
    425000   0.3615399     -7.3635439     -6.8213697     -0.053125122    3973.5237    
    426000   0.36453187    -7.3524412     -6.8057801      0.0050190397   3974.1381    
    427000   0.3695795     -7.3600161     -6.8057854     -0.027793946    3973.562     
    428000   0.36805186    -7.3725757     -6.820636      -0.035764244    3969.6306    
    429000   0.37124274    -7.3669829     -6.810258       0.10835682     3962.791     
    430000   0.36773489    -7.3544876     -6.8030231      0.012353223    3972.7268    
    431000   0.36858269    -7.3670997     -6.8143639     -0.063129659    3973.4704    
    432000   0.37423608    -7.3616175     -6.8004037      0.020686363    3970.2652    
    433000   0.37431468    -7.347295      -6.7859634     -0.075303718    3981.6833    
    434000   0.37741931    -7.3541484     -6.788161      -0.035225059    3976.6833    
    435000   0.3674518     -7.3604552     -6.8094153      0.04049236     3969.1274    
    436000   0.36804096    -7.3463327     -6.7944093     -0.15354024     3986.6571    
    437000   0.37868985    -7.3544069     -6.7865141      0.22928635     3959.5193    
    438000   0.37720929    -7.3365688     -6.7708963     -0.13116576     3989.1223    
    439000   0.3852151     -7.3417888     -6.7641106      0.16136712     3969.1596    
    440000   0.37505146    -7.3333279     -6.7708914     -0.053989741    3985.0914    
    441000   0.38178618    -7.3276464     -6.7551103      0.12013865     3976.7562    
    442000   0.39008455    -7.3340081     -6.7490276     -0.03536528     3984.7702    
    443000   0.37909185    -7.3276339     -6.7591383      0.13487503     3975.0683    
    444000   0.37666242    -7.3345511     -6.7696987     -0.15011695     3991.0021    
    445000   0.37824172    -7.3164889     -6.7492681      0.13111452     3979.4857    
    446000   0.38228515    -7.3376337     -6.7643493      0.0035932103   3980.2536    
    447000   0.37873215    -7.328402      -6.7604458     -0.0014499845   3984.2871    
    448000   0.37640941    -7.3152859     -6.7508129     -0.16960772     3999.3415    
    449000   0.3830984     -7.3123552     -6.7378513      0.1117175      3982.1899    
    450000   0.39210314    -7.3090792     -6.7210716     -0.021364124    3993.2891    
    451000   0.38239208    -7.3043183     -6.7308736     -0.014382434    3993.8543    
    452000   0.39042404    -7.3248784     -6.7393888      0.053176425    3982.0798    
    453000   0.39072729    -7.3169441     -6.7309997     -0.089589882    3994.2506    
    454000   0.39454877    -7.2866497     -6.6949745     -0.12038995     4007.9704    
    455000   0.39238537    -7.3187646     -6.7303337      0.11041039     3980.7819    
    456000   0.39530114    -7.3188579     -6.7260545      0.048495455    3985.0593    
    457000   0.40072995    -7.3034627     -6.702518      -0.13886539     4002.9842    
    458000   0.40520685    -7.3055485     -6.6978902     -0.18297872     4005.7319    
    459000   0.3829849     -7.320443      -6.7461093      0.065191936    3982.7124    
    460000   0.3947562     -7.2909693     -6.6989831      0.1297688      3989.6116    
    461000   0.39615173    -7.2868601     -6.6927811     -0.054251193    4003.478     
    462000   0.38905227    -7.3213171     -6.7378845     -0.068722817    3991.9665    
    463000   0.40104542    -7.2947845     -6.6933667      0.039757733    3994.5102    
    464000   0.40144684    -7.2909623     -6.6889425      0.11140606     3991.1713    
    465000   0.39650192    -7.2997218     -6.7051176      0.015663363    3994.207     
    466000   0.40040976    -7.3097211     -6.7092566     -0.11209818     3999.1411    
    467000   0.40061533    -7.2914593     -6.6906865     -0.082428536    4004.2733    
    468000   0.41114144    -7.2901912     -6.6736332     -0.026813442    4001.117     
    469000   0.39711398    -7.2822938     -6.6867718      0.10805057     3994.2401    
    470000   0.41242822    -7.288375      -6.6698873      0.070345058    3996.3981    
    471000   0.40335886    -7.2620943     -6.6572072      0.049548189    4006.5327    
    472000   0.40468729    -7.2580066     -6.6511274      0.043412027    4008.1314    
    473000   0.41006845    -7.2872373     -6.6722884      0.13603426     3991.505     
    474000   0.40344686    -7.2755495     -6.6705305      0.056831587    4001.0741    
    475000   0.41849141    -7.289338      -6.6617579      0.1610695      3989.7117    
    476000   0.41694008    -7.2554896     -6.6302359      0.083768945    4007.2461    
    477000   0.40464291    -7.2741823     -6.6673697      0.11325111     3997.452     
    478000   0.42082405    -7.2785047     -6.6474265      0.024695595    4003.22      
    479000   0.41464792    -7.2675721     -6.6457558      0.055398607    4004.3569    
    480000   0.41099517    -7.2695465     -6.6532078     -0.011696436    4007.8796    
    481000   0.40774039    -7.2798701     -6.6684124     -0.023695395    4004.5809    
    482000   0.41526745    -7.2623636     -6.6396181     -0.036128816    4013.4573    
    483000   0.41563091    -7.2415668     -6.6182763     -0.06627816     4022.2646    
    484000   0.4232765     -7.2657765     -6.6310205     -0.0038889133   4009.8969    
    485000   0.42159961    -7.2765045     -6.6442632      0.053916977    4001.7487    
    486000   0.41203762    -7.2714145     -6.6535125      0.11153944     3999.0385    
    487000   0.41634223    -7.2492171     -6.6248599      0.10875027     4007.7921    
    488000   0.42077759    -7.2406567     -6.6096481      0.0040324238   4017.9411    
    489000   0.42247622    -7.2418407     -6.6082848     -0.083151872    4023.8712    
    490000   0.41159005    -7.240797      -6.6235663     -0.033250746    4020.0996    
    491000   0.41487591    -7.2539588     -6.6318005      0.039116576    4010.4621    
    492000   0.42717185    -7.2441009     -6.6035033      0.15789425     4007.089     
    493000   0.42877603    -7.2373915     -6.5943882      0.062915646    4016.1898    
    494000   0.41922784    -7.2612359     -6.6325514     -0.10829004     4018.0554    
    495000   0.41981455    -7.2234787     -6.5939143     -0.027765405    4026.5947    
    496000   0.42576232    -7.231294      -6.5928101      0.054007827    4018.7302    
    497000   0.41421371    -7.2221432     -6.600978       0.045984629    4021.6045    
    498000   0.42974307    -7.25688       -6.6124265     -0.014700109    4013.3527    
    499000   0.42971232    -7.2289315     -6.5845242      0.042817755    4020.9759    
    500000   0.43380061    -7.2299645     -6.5794263     -0.0098483752   4024.0881    
    501000   0.43449527    -7.2416709     -6.5900909      0.00071994331  4019.3919    
    502000   0.42312979    -7.2311116     -6.5965756      0.051585097    4018.8532    
    503000   0.42819367    -7.2076023     -6.5654724     -0.062415813    4035.4038    
    504000   0.43634279    -7.2390582     -6.5847077      0.021616235    4018.9251    
    505000   0.43470702    -7.2254469     -6.5735494      0.056876164    4021.3244    
    506000   0.43390588    -7.2005402     -6.5498441     -0.092148869    4040.6757    
    507000   0.4394577     -7.238476      -6.5794543      0.046779931    4017.0416    
    508000   0.42691096    -7.2143011     -6.5740947     -0.14604497     4038.389     
    509000   0.4310525     -7.1988094     -6.5523923      0.067409885    4030.2323    
    510000   0.44141109    -7.2031597     -6.5412086     -0.10988594     4041.5436    
    511000   0.4316483     -7.2253117     -6.5780011      0.06037823     4020.4747    
    512000   0.45042022    -7.2112059     -6.5357444     -0.074215394    4036.3838    
    513000   0.44359789    -7.201305      -6.5360745      0.077073463    4029.413     
    514000   0.43211115    -7.2016947     -6.5536901     -0.030168674    4036.0499    
    515000   0.44040909    -7.2210825     -6.560634       0.0080700648   4026.7793    
    516000   0.44105464    -7.1931718     -6.5317552      0.040925085    4034.4724    
    517000   0.44853346    -7.1900633     -6.5174313     -0.016743595    4040.3271    
    518000   0.44906045    -7.1910166     -6.5175943     -0.027660842    4040.5339    
    519000   0.44138577    -7.204745      -6.5428319     -0.02491849     4034.8407    
    520000   0.4444818     -7.2064645     -6.5399085      0.025610068    4031.0492    
    521000   0.44915932    -7.178513      -6.5049425      0.00080255714  4043.7667    
    522000   0.44528536    -7.1868513     -6.5190903     -0.011923673    4040.9725    
    523000   0.45686993    -7.1917351     -6.5066016     -0.12685672     4047.5382    
    524000   0.44984508    -7.1613474     -6.4867484      0.011162476    4049.568     
    525000   0.44928371    -7.1858497     -6.5120926      0.11553794     4033.0243    
    526000   0.44698933    -7.1750769     -6.5047605      0.060470852    4040.6859    
    527000   0.45405904    -7.1644009     -6.4834826     -0.13048595     4058.0057    
    528000   0.45373391    -7.180519      -6.5000883     -0.043701651    4046.7067    
    529000   0.45176589    -7.1737568     -6.4962774      0.048226033    4042.4187    
    530000   0.47085372    -7.1826803     -6.4765763      0.10443595     4036.425     
    531000   0.46296201    -7.1723377     -6.4780683      0.068215028    4042.3058    
    532000   0.44696668    -7.1596243     -6.4893419     -0.12423411     4059.1763    
    533000   0.45426043    -7.1807209     -6.4995006     -0.052657644    4046.547     
    534000   0.45728812    -7.15125       -6.4654893     -0.099916267    4061.4767    
    535000   0.45022182    -7.160578      -6.4854141     -0.020269339    4052.3106    
    536000   0.45712083    -7.1514075     -6.4658977      0.030245777    4052.3693    
    537000   0.46256137    -7.1411245     -6.4474559      0.091405724    4052.3101    
    538000   0.45838117    -7.1504121     -6.4630123      0.093531871    4048.2361    
    539000   0.46342551    -7.1529036     -6.4579391      0.090981586    4047.8806    
    540000   0.46540156    -7.1716137     -6.4736859      0.1695425      4035.1458    
    541000   0.46438708    -7.1602501     -6.4638436      0.15902486     4040.64      
    542000   0.45425802    -7.1237833     -6.4425667      0.083130195    4059.2486    
    543000   0.47488115    -7.1335005     -6.4213568     -0.024799062    4063.612     
    544000   0.46985793    -7.1446443     -6.4400336      0.038917719    4055.2422    
    545000   0.47366291    -7.1541515     -6.4438348      0.0089939034   4054.1905    
    546000   0.4633898     -7.1199173     -6.4250063     -0.021873231    4068.5665    
    547000   0.48394641    -7.1332256     -6.4074875     -0.062429581    4067.022     
    548000   0.46599433    -7.1342328     -6.4354161     -0.03526592     4064.3139    
    549000   0.48536262    -7.1446065     -6.4167446      0.021980776    4057.3619    
    550000   0.47419037    -7.1139329     -6.4028252      0.039015036    4067.2302    
    551000   0.47726175    -7.1307086     -6.414995       0.0031169878   4063.1447    
    552000   0.46484003    -7.1238376     -6.4267519     -0.13742019     4075.1384    
    553000   0.46698489    -7.1248794     -6.4245772     -0.039856629    4068.5585    
    554000   0.48115047    -7.1316552     -6.41011        0.086746086    4057.3728    
    555000   0.47588839    -7.1050107     -6.3913565      0.074948564    4068.5438    
    556000   0.48021624    -7.1257153     -6.405571      -0.032701389    4067.9621    
    557000   0.46881272    -7.1342753     -6.431232      -0.036365209    4064.3318    
    558000   0.47916251    -7.1163814     -6.3978173     -0.040652026    4071.7927    
    559000   0.48956746    -7.1203547     -6.3861871      0.10075634     4061.9407    
    560000   0.47689636    -7.103376      -6.3882103      0.081991577    4068.6516    
    561000   0.47210067    -7.115846      -6.4078721     -0.17977893     4081.9002    
    562000   0.47540437    -7.1121993     -6.3992711      0.07882314     4065.0327    
    563000   0.48281409    -7.1040738     -6.3800337      0.028018419    4072.4729    
    564000   0.49009298    -7.0928354     -6.3578797     -0.13621875     4088.5402    
    565000   0.48752567    -7.1049282     -6.3738226      0.10839939     4066.5995    
    566000   0.48417669    -7.1159668     -6.3898834     -0.044823296    4073.085     
    567000   0.48855863    -7.1029044     -6.3702497      0.069050558    4069.768     
    568000   0.48812777    -7.107379      -6.3753704     -0.012756128    4074.6532    
    569000   0.4817656     -7.0990362     -6.3765685      0.033070497    4074.1298    
    570000   0.48808768    -7.0836108     -6.3516623      0.01176957     4081.6924    
    571000   0.48129169    -7.0887902     -6.3670331     -0.053719347    4084.3539    
    572000   0.50125685    -7.0907225     -6.3390252      0.0045307404   4080.3871    
    573000   0.49900875    -7.0762865     -6.3279605     -0.028219183    4088.2057    
    574000   0.4923593     -7.0656429     -6.3272886      0.041042022    4087.6364    
    575000   0.48841795    -7.0810604     -6.3486167     -0.001722079    4084.0937    
    576000   0.48923238    -7.0809383     -6.3472732     -0.012402564    4084.5277    
    577000   0.49460201    -7.0792621     -6.3375445     -0.020660241    4086.8055    
    578000   0.50051067    -7.0480316     -6.2974533      0.053398743    4093.4278    
    579000   0.49954545    -7.0695528     -6.3204219      0.01601091     4087.9122    
    580000   0.50123308    -7.0810023     -6.3293407     -0.054808812    4088.3996    
    581000   0.50182061    -7.0657767     -6.313234      -0.021764492    4092.294     
    582000   0.50279902    -7.0622463     -6.3082363      0.043547274    4088.9857    
    583000   0.49528915    -7.0648486     -6.3221006     -0.012453688    4091.3729    
    584000   0.4959955     -7.0890449     -6.3452376     -0.089497814    4087.5007    
    585000   0.5054161     -7.0557729     -6.2978383      0.011284036    4094.5245    
    586000   0.50178123    -7.0427287     -6.290245       0.017671437    4098.4557    
    587000   0.49783952    -7.0826176     -6.336045      -0.039838326    4086.571     
    588000   0.50131005    -7.0581631     -6.306386      -0.012857646    4093.7801    
    589000   0.50590908    -7.0451897     -6.2865158      0.015352968    4097.9044    
    590000   0.50321535    -7.0262217     -6.2715874      0.075545254    4100.8158    
    591000   0.51227304    -7.0668418     -6.2986244     -0.072771919    4095.6804    
    592000   0.51705705    -7.0268966     -6.2515049     -0.098507514    4113.9009    
    593000   0.51029481    -7.0187122     -6.2534613     -0.14251233     4120.1656    
    594000   0.50834946    -7.0418323     -6.2794988     -0.061543131    4104.3817    
    595000   0.51204236    -7.0476928     -6.2798213     -0.015406066    4099.5116    
    596000   0.5217007     -7.0079059     -6.2255504     -0.0087576798   4116.3191    
    597000   0.513149      -7.0504713     -6.2809402     -0.077651577    4103.4007    
    598000   0.5087727     -7.0361159     -6.2731477     -0.063327745    4108.1993    
    599000   0.51295762    -6.9995784     -6.2303343     -0.059422656    4122.1215    
    600000   0.50782703    -7.0244112     -6.2628611     -0.071975673    4112.9704    
    601000   0.52262408    -7.0198909     -6.2361508     -0.096478087    4117.3716    
    602000   0.5133162     -7.0195107     -6.2497289     -0.12712432     4118.8236    
    603000   0.52069904    -7.045263      -6.2644098      0.001206162    4100.1378    
    604000   0.51342512    -7.0185802     -6.248635      -0.030258241    4112.9573    
    605000   0.52083992    -7.0062962     -6.2252316     -0.11035165     4123.4528    
    606000   0.52247968    -7.0193522     -6.2358286     -0.090272842    4117.1081    
    607000   0.50971751    -7.0327524     -6.2683673      0.020330758    4102.588     
    608000   0.52387929    -7.0174643     -6.2318418      0.14702894     4100.8255    
    609000   0.53053992    -7.0120921     -6.2164812      0.092419314    4106.6789    
    610000   0.51898995    -6.9964938     -6.2182035      0.049951904    4115.2953    
    611000   0.51632475    -7.0149757     -6.2406822     -0.0061336908   4111.9528    
    612000   0.52554548    -7.0275696     -6.2394484     -0.02114481     4109.1025    
    613000   0.53144267    -6.9939423     -6.1969776      0.034747635    4119.0466    
    614000   0.51653541    -6.9904349     -6.2158255      0.017799147    4119.9871    
    615000   0.52621899    -6.9821693     -6.1930381     -0.091109618    4132.5498    
    616000   0.5284953     -6.9768368     -6.1842921      0.031383919    4125.9057    
    617000   0.52972063    -7.0092403     -6.2148581      6.9687983e-06  4114.557     
    618000   0.52134142    -6.9771747     -6.1953581     -0.16376418     4139.2722    
    619000   0.53221848    -6.9744694     -6.1763413      0.036993634    4125.8766    
    620000   0.52480366    -6.9826083     -6.1955996      0.041009352    4122.645     
    621000   0.53155938    -6.9728459     -6.1757061     -0.15376616     4140.4063    
    622000   0.53556205    -7.004785      -6.2016428      0.035055931    4114.6746    
    623000   0.5356031     -6.9579441     -6.1547403     -0.0028599691   4135.9517    
    624000   0.53054906    -6.9753335     -6.1797089     -0.046568417    4133.2242    
    625000   0.53413866    -6.9684439     -6.1674362     -0.0014152154   4131.7532    
    626000   0.52569757    -6.9734678     -6.1851186      0.18679043     4115.0364    
    627000   0.53127862    -6.9828094     -6.1860907     -0.14636546     4136.1951    
    628000   0.53922692    -6.9734471     -6.1648089      0.095258981    4122.7629    
    629000   0.54168412    -6.9700004     -6.1576774      0.017764239    4130.4612    
    630000   0.53177806    -6.9793655     -6.1818978     -0.11009456     4135.3296    
    631000   0.53284586    -6.9608265     -6.1617575      0.1026464      4127.0658    
    632000   0.54834538    -6.9586399     -6.1363275     -0.11357629     4144.8657    
    633000   0.54371935    -6.9527557     -6.1373806      0.0068055116   4138.4743    
    634000   0.54604738    -6.9860369     -6.1671706     -0.061829516    4129.8346    
    635000   0.54694464    -6.9813926     -6.1611807     -0.014787367    4128.9574    
    636000   0.54470013    -6.9456406     -6.1287947      0.066312431    4136.9619    
    637000   0.54361687    -6.9431983     -6.1279769     -0.027544617    4144.1506    
    638000   0.56694846    -6.963293      -6.1130829      0.041302895    4132.438     
    639000   0.54314505    -6.9479657     -6.1334518      0.042861876    4137.6155    
    640000   0.53687262    -6.9396073     -6.1344997     -0.031178033    4146.5096    
    641000   0.54160508    -6.9219645     -6.10976       -0.093478149    4158.1829    
    642000   0.55041801    -6.9621277     -6.1367071      0.12010122     4126.1491    
    643000   0.55086542    -6.9434881     -6.1173965      0.072698096    4138.1863    
    644000   0.54302779    -6.9268571     -6.1125191     -0.16087833     4161.103     
    645000   0.56136845    -6.9450124     -6.1031702     -0.021415682    4144.7753    
    646000   0.55215323    -6.9132757     -6.0852529     -0.0079572395   4154.994     
    647000   0.53582199    -6.9433056     -6.1397735     -0.04283482     4145.5111    
    648000   0.56135611    -6.9198631     -6.0780394      0.0015733033   4153.707     
    649000   0.56955257    -6.930141      -6.0760257      0.067360853    4145.0089    
    650000   0.54540962    -6.9452871     -6.1273772     -0.14955332     4153.5053    
    651000   0.55415789    -6.9085873     -6.0775582     -0.06216924     4162.1742    
    652000   0.56987258    -6.9186265     -6.0640313     -0.023118514    4156.2627    
    653000   0.56323833    -6.9099474     -6.0653011      0.081072211    4151.4333    
    654000   0.55094391    -6.9188008     -6.0925916      0.16579335     4141.4135    
    655000   0.54911268    -6.9109025     -6.0874394      0.034828301    4153.2615    
    656000   0.5474573     -6.900759      -6.0797784      0.088609112    4153.0102    
    657000   0.56191776    -6.9008838     -6.0582179      0.019377622    4160.0078    
    658000   0.573495      -6.8802694     -6.020242       0.052415287    4167.1729    
    659000   0.55189084    -6.871069      -6.0434397      0.085519608    4166.4498    
    660000   0.57187683    -6.9151056     -6.0575048     -0.0024909413   4157.2626    
    661000   0.56703737    -6.8918885     -6.0415451     -0.087732908    4172.6235    
    662000   0.58011318    -6.8750448     -6.0050926     -0.10735509     4181.404     
    663000   0.57140787    -6.8949276     -6.0380301     -0.034666044    4167.2802    
    664000   0.56849838    -6.9084952     -6.0559608      0.14787565     4147.6269    
    665000   0.57713523    -6.8961124     -6.030626       0.14071832     4153.9246    
    666000   0.57828802    -6.8841854     -6.0169702     -0.0037401454   4169.392     
    667000   0.56726465    -6.8886668     -6.0379826     -0.055099504    4170.025     
    668000   0.56213333    -6.86111       -6.0181208     -0.047423375    4181.0638    
    669000   0.55611423    -6.8662445     -6.0322817      0.071874811    4170.6009    
    670000   0.57700715    -6.8913824     -6.026088      -0.049411491    4169.8337    
    671000   0.5776095     -6.864147      -5.9979493     -0.0911616      4184.9596    
    672000   0.56491775    -6.8953272     -6.0481625      0.00040823104  4163.7945    
    673000   0.57056229    -6.8503305     -5.994701       0.073255977    4177.7297    
    674000   0.57984345    -6.8523002     -5.9827524     -0.032943018    4185.1455    
    675000   0.57664246    -6.882209      -6.0174616      0.048403147    4167.163     
    676000   0.58223121    -6.8391002     -5.9659717     -0.04655201     4192.6128    
    677000   0.5834516     -6.8456191     -5.9706605     -0.044807219    4190.507     
    678000   0.58551117    -6.8691952     -5.991148       0.020345566    4174.6625    
    679000   0.56474911    -6.8361799     -5.989268       0.041895858    4185.3324    
    680000   0.58413458    -6.8341803     -5.9581974     -0.033212977    4192.6501    
    681000   0.59076773    -6.8588259     -5.9728958      0.10361461     4173.1028    
    682000   0.56741717    -6.8584527     -6.0075397     -0.040462705    4182.526     
    683000   0.59097577    -6.851595      -5.965353       0.13587547     4173.8263    
    684000   0.58483448    -6.8339643     -5.9569319     -0.11474515     4200.0976    
    685000   0.58003096    -6.8602964     -5.9904675      0.0042059958   4178.9819    
    686000   0.58435929    -6.8589873     -5.9826675     -0.16203631     4193.2698    
    687000   0.59192372    -6.8310267     -5.9433631      0.085312811    4187.0339    
    688000   0.59519426    -6.8374194     -5.9448512     -0.01637031     4192.3295    
    689000   0.57994638    -6.8465079     -5.9768058      0.043527978    4182.3135    
    690000   0.58276842    -6.8462292     -5.9722951      0.055651488    4182.2965    
    691000   0.59845372    -6.8340986     -5.9366425     -0.025192189    4193.7393    
    692000   0.59930388    -6.8463761     -5.947645       0.04663184     4183.2703    
    693000   0.59825928    -6.821002      -5.9238375      0.035452618    4195.3329    
    694000   0.60358245    -6.813787      -5.9086396      0.098741613    4193.1409    
    695000   0.598407      -6.8088351     -5.911449      -0.098103875    4211.4914    
    696000   0.59155212    -6.8355874     -5.9484811      0.0074885069   4189.8678    
    697000   0.60427954    -6.8194296     -5.9132369      0.041949394    4195.7037    
    698000   0.60137881    -6.7960874     -5.8942447     -0.021840876    4208.9478    
    699000   0.57673856    -6.840252      -5.9753604      0.00042234039  4187.9022    
    700000   0.60467645    -6.797146      -5.8903581      0.15638198     4196.5961    
    701000   0.59850893    -6.8009288     -5.9033898      0.064771886    4200.8675    
    702000   0.60555665    -6.7928216     -5.8847137     -0.012482588    4210.7227    
    703000   0.58973703    -6.7997631     -5.9153787     -0.16459704     4219.0745    
    704000   0.60164168    -6.7990098     -5.8967729     -0.079124405    4213.1802    
    705000   0.60556696    -6.781116      -5.8729926     -0.060002348    4219.4328    
    706000   0.59258926    -6.7923564     -5.9036947      0.066692916    4203.1276    
    707000   0.60828503    -6.7531684     -5.8409689      0.086482828    4220.5987    
    708000   0.59207405    -6.7637186     -5.8758296      0.099833018    4214.2133    
    709000   0.61357082    -6.7916262     -5.8715001     -0.017577062    4212.8117    
    710000   0.61111661    -6.7982376     -5.8817919     -0.05404955     4212.0344    
    711000   0.60481008    -6.7955844     -5.8885961     -0.046224896    4213.0284    
    712000   0.59696966    -6.749709      -5.8544784     -0.074188108    4234.898     
    713000   0.61998454    -6.7837946     -5.8540503      0.16842107     4202.3143    
    714000   0.60393363    -6.787103      -5.881429       0.052548892    4208.1458    
    715000   0.61066656    -6.7820623     -5.8662914     -0.089236654    4221.4468    
    716000   0.61154557    -6.7574975     -5.8404085     -0.15360378     4238.0747    
    717000   0.62201574    -6.7729848     -5.8401944      0.08547205     4212.8391    
    718000   0.62598873    -6.7324184     -5.79367       -0.016000703    4239.1569    
    719000   0.60432495    -6.7487636     -5.8425028     -0.088950464    4236.3311    
    720000   0.61570099    -6.7679975     -5.8446769      0.083134333    4215.3369    
    721000   0.62471226    -6.7149717     -5.7781376     -0.015566626    4246.0602    
    722000   0.60989735    -6.7482113     -5.833594      -0.020277426    4231.96      
    723000   0.60641653    -6.7461705     -5.8367731     -0.0318132      4233.244     
    724000   0.61739233    -6.6811715     -5.7553145      0.086800371    4252.3435    
    725000   0.61826203    -6.7566374     -5.8294762     -0.080707618    4232.8711    
    726000   0.61679365    -6.7407602     -5.815801       0.017408785    4233.1659    
    727000   0.62373806    -6.7278759     -5.7925027     -0.033344102    4242.2314    
    728000   0.61655583    -6.765749      -5.8411465     -0.12480192     4232.7404    
    729000   0.63490351    -6.7464028     -5.7942857      0.032744987    4229.8972    
    730000   0.6196176     -6.7110076     -5.7818136     -0.085077315    4254.8759    
    731000   0.61992614    -6.7654707     -5.835814       0.11817441     4213.6931    
    732000   0.62954564    -6.7298808     -5.7857984     -0.15711654     4251.7799    
    733000   0.64493277    -6.7398677     -5.7727103      0.11945929     4226.4148    
    734000   0.62958122    -6.7151996     -5.7710639     -0.043443242    4249.2775    
    735000   0.62631765    -6.7445739     -5.8053323     -0.063601525    4237.7589    
    736000   0.62797064    -6.7331759     -5.7914555      0.075945802    4231.581     
    737000   0.62719887    -6.7019537     -5.7613906     -0.082285814    4258.101     
    738000   0.6261738     -6.6958826     -5.7568567     -0.0078500816   4254.5642    
    739000   0.62349892    -6.6729861     -5.7379716     -0.0043883556   4264.4286    
    740000   0.62907827    -6.715095      -5.7717135     -0.021399735    4247.2977    
    741000   0.61470224    -6.6946827     -5.7728599     -0.10246756     4263.393     
    742000   0.63500482    -6.6871057     -5.7348366     -0.10736488     4267.2585    
    743000   0.63383384    -6.6999472     -5.7494341      0.05960795     4248.4625    
    744000   0.62767154    -6.6798866     -5.7386147      0.03437403     4259.5238    
    745000   0.6273896     -6.6963439     -5.7554948      0.047139282    4248.6949    
    746000   0.62869099    -6.6583736     -5.7155729      0.10112131     4261.9931    
    747000   0.63593312    -6.6677616     -5.7141003     -0.030916119    4268.9958    
    748000   0.63454584    -6.7084321     -5.7568513     -0.025724949    4250.8237    
    749000   0.63495395    -6.6476672     -5.6954744      0.0077088792   4276.4828    
    750000   0.6388209     -6.6704934     -5.7125016      0.13671745     4254.6619    
    751000   0.63445927    -6.6571037     -5.7056527     -0.010872726    4272.2036    
    752000   0.64021444    -6.7009177     -5.7408361      0.069859691    4248.4936    
    753000   0.64373844    -6.673168      -5.7078017      0.08898599     4258.7138    
    754000   0.6380968     -6.6555724     -5.6986664     -0.0021422075   4272.0787    
    755000   0.63784851    -6.614299      -5.6577655     -0.017763535    4293.4146    
    756000   0.65759049    -6.6484445     -5.6623054     -0.013908474    4278.3407    
    757000   0.64905715    -6.6637496     -5.6904073     -0.0080413491   4270.1325    
    758000   0.66573632    -6.6829213     -5.6845665      0.14339145     4251.669     
    759000   0.6530066     -6.6277667     -5.6485017     -0.11015868     4295.449     
    760000   0.65574482    -6.6584479     -5.6750766      0.075218342    4267.5115    
    761000   0.64323582    -6.6371045     -5.672492      -0.047941345    4284.6546    
    762000   0.64856889    -6.6750851     -5.702475      -0.072535937    4271.565     
    763000   0.62502859    -6.6016408     -5.6643323     -0.11979084     4308.0099    
    764000   0.65739819    -6.6552736     -5.6694229     -0.011175178    4274.4638    
    765000   0.66437472    -6.582648      -5.5863351     -0.035422762    4311.847     
    766000   0.66405167    -6.6622411     -5.6664126     -0.021930096    4274.4331    
    767000   0.65141987    -6.6430109     -5.6661254      0.021343591    4278.5586    
    768000   0.66265149    -6.6049699     -5.6112411      0.082901758    4290.1735    
    769000   0.6553025     -6.6374782     -5.6547702      0.032694393    4279.7095    
    770000   0.64809676    -6.6135336     -5.6416315     -0.018068882    4294.1106    
    771000   0.65702579    -6.6026158     -5.6173235      0.049894934    4295.0648    
    772000   0.6548931     -6.6043999     -5.6223059     -0.10132287     4304.4912    
    773000   0.65274235    -6.6408665     -5.6619977     -0.025293187    4282.7757    
    774000   0.66985985    -6.6012567     -5.5967181     -0.077490726    4306.1335    
    775000   0.65090106    -6.5903735     -5.614266       0.067077007    4297.5711    
    776000   0.6691039     -6.5967028     -5.5932979     -0.013477182    4303.7017    
    777000   0.66391843    -6.6184649     -5.6228362     -0.16294695     4305.2046    
    778000   0.67428184    -6.6242867     -5.6131168      0.15958744     4275.8625    
    779000   0.65872743    -6.566749      -5.5789048      0.20095931     4297.9574    
    780000   0.66408865    -6.5717319     -5.575848       0.069095682    4308.1297    
    781000   0.67262306    -6.5921849     -5.5835026     -0.13725399     4315.6098    
    782000   0.64914767    -6.5867212     -5.6132431     -0.012385944    4305.6987    
    783000   0.66349387    -6.5719572     -5.5769652      0.093438234    4305.7989    
    784000   0.66523947    -6.5855062     -5.5878965     -0.036548207    4309.7228    
    785000   0.66502501    -6.6180972     -5.6208091     -0.0138597      4291.6492    
    786000   0.67510377    -6.5757721     -5.5633696      0.0096698012   4312.2239    
    787000   0.65962751    -6.5608181     -5.5716242     -0.036008022    4323.3475    
    788000   0.66664371    -6.5174016     -5.517686      -0.13449446     4350.2412    
    789000   0.67158388    -6.5899563     -5.5828323     -0.06902285     4309.9743    
    790000   0.67143661    -6.5427817     -5.5358786      0.045519321    4323.3783    
    791000   0.683019      -6.5768712     -5.5525988     -0.0021019186   4313.2364    
    792000   0.66962521    -6.5620324     -5.5578457      0.023854278    4315.447     
    793000   0.68237826    -6.5416183     -5.5183068     -0.04780528     4331.9713    
    794000   0.66710502    -6.5590116     -5.5586042     -0.13537121     4331.2731    
    795000   0.68819805    -6.4910981     -5.4590591      0.10178366     4342.4856    
    796000   0.68009817    -6.560702      -5.5408098     -0.0042004743   4319.6019    
    797000   0.67304108    -6.515409      -5.5060998     -0.26115421     4364.116     
    798000   0.67501686    -6.5021802     -5.4899081     -0.14945516     4358.9812    
    799000   0.68803651    -6.553387      -5.5215902      0.044349893    4319.8679    
    800000   0.67604225    -6.5723745     -5.5585646     -0.047394758    4318.506     
    801000   0.69220967    -6.5267373     -5.4886823     -0.052730615    4341.3105    
    802000   0.68454084    -6.5363497     -5.5097952     -0.099606236    4340.7724    
    803000   0.69086486    -6.4819911     -5.4459529      0.12679498     4346.638     
    804000   0.68251451    -6.5194519     -5.4959361     -0.043182815    4343.4144    
    805000   0.6871716     -6.516258      -5.4857583      0.14088003     4329.1542    
    806000   0.68969105    -6.4666928     -5.4324148     -0.011102858    4366.5246    
    807000   0.6891908     -6.5174449     -5.4839171     -0.10755286     4349.3727    
    808000   0.69045793    -6.4770363     -5.4416083      0.16865613     4343.2548    
    809000   0.6897269     -6.5176661     -5.4833344      0.046871085    4336.785     
    810000   0.68947245    -6.4999086     -5.4659585      0.027038706    4346.3634    
    811000   0.68698281    -6.4945586     -5.464342      -0.086161328    4358.8366    
    812000   0.69259056    -6.5313529     -5.4927268      0.015076078    4332.1594    
    813000   0.70132943    -6.4953653     -5.4436342      0.094473972    4342.6768    
    814000   0.7012106     -6.4961879     -5.4446349      0.15455525     4337.8823    
    815000   0.69629141    -6.4274331     -5.3832571     -0.090422577    4391.3896    
    816000   0.69061395    -6.4920521     -5.4563902     -0.1635387      4366.1692    
    817000   0.67771261    -6.4787015     -5.4623867      0.04984519     4353.9887    
    818000   0.69306864    -6.4555267     -5.4161836      0.015138189    4369.4842    
    819000   0.6819999     -6.4259996     -5.4032555     -0.084841956    4391.9346    
    820000   0.7038664     -6.4377483     -5.3822127     -0.020057211    4380.7974    
    821000   0.69682836    -6.4652241     -5.4202428     -0.10885512     4375.8147    
    822000   0.71353671    -6.4513555     -5.381318       0.022007807    4372.3486    
    823000   0.70798347    -6.4570755     -5.3953658     -0.085866405    4377.8766    
    824000   0.69658415    -6.4729039     -5.4282889      0.10323076     4352.9761    
    825000   0.69635637    -6.4256742     -5.3814008     -0.021233103    4385.95      
    826000   0.7051777     -6.4493372     -5.3918351      0.15239591     4362.3829    
    827000   0.71397448    -6.4294327     -5.3587387      0.060173524    4379.4568    
    828000   0.69544997    -6.4448431     -5.401929       0.039443739    4373.1583    
    829000   0.69162117    -6.4075275     -5.3703551      0.14274091     4381.0019    
    830000   0.7146111     -6.4601011     -5.3884524      0.023854621    4366.4417    
    831000   0.70079521    -6.3485059     -5.2975759     -0.060542887    4429.5188    
    832000   0.69827465    -6.4260449     -5.3788948     -0.069936257    4390.3488    
    833000   0.71268285    -6.3871045     -5.3183475      0.0097806711   4405.157     
    834000   0.71561597    -6.3924442     -5.3192886     -0.089973356    4412.8611    
    835000   0.71214708    -6.4303177     -5.3623641      0.096707467    4376.8029    
    836000   0.72132725    -6.3588211     -5.2771008      0.070075068    4413.3379    
    837000   0.71477666    -6.4357232     -5.3638263     -0.020370969    4383.9382    
    838000   0.70408746    -6.3870677     -5.3312005      0.046036187    4400.5142    
    839000   0.70504339    -6.3864374     -5.3291367      0.058287402    4399.0888    
    840000   0.71783079    -6.3734404     -5.2969634      0.0090448925   4412.7502    
    841000   0.71661755    -6.37643       -5.3017724      0.082516286    4403.1967    
    842000   0.72787069    -6.416907      -5.3253739     -0.096869306    4402.5177    
    843000   0.73678575    -6.3730556     -5.2681533      0.14460597     4401.3137    
    844000   0.70614837    -6.4342076     -5.3752498     -0.033870335    4384.8964    
    845000   0.71941871    -6.3690717     -5.2902134      0.11582095     4405.4441    
    846000   0.7417937     -6.3978487     -5.2854363      0.031650362    4400.5613    
    847000   0.71058264    -6.3781886     -5.3125811      0.0038827341   4408.5136    
    848000   0.72810348    -6.3538523     -5.2619702      0.12667299     4411.1577    
    849000   0.72733618    -6.3377481     -5.2470166      0.091222571    4424.5383    
    850000   0.72654742    -6.3735394     -5.2839907     -0.050989484    4418.8656    
    851000   0.73407861    -6.3378407     -5.2369981      0.021403984    4429.6451    
    852000   0.71800607    -6.405156      -5.3284162     -0.15697968     4409.4478    
    853000   0.74093994    -6.3409672     -5.2298352     -0.0048535649   4430.1325    
    854000   0.72311213    -6.3771072     -5.2927102     -0.080628708    4417.6605    
    855000   0.7266193     -6.3182526     -5.2285961     -0.021046484    4443.0827    
    856000   0.73602716    -6.3171328     -5.2133681     -0.084806731    4451.801     
    857000   0.71300753    -6.3803639     -5.31112       -0.14011368     4422.2981    
    858000   0.74189803    -6.3430414     -5.2304725      0.030566028    4427.9353    
    859000   0.729955      -6.3429634     -5.2483046      0.072326538    4420.9256    
    860000   0.74085444    -6.3130526     -5.2020488      0.009585556    4443.4162    
    861000   0.72170633    -6.3306346     -5.2483457     -0.061140621    4441.6169    
    862000   0.73383556    -6.287117      -5.1866388     -0.065077322    4465.9902    
    863000   0.74163715    -6.2920337     -5.1798561     -0.046950933    4460.5861    
    864000   0.72959078    -6.3261396     -5.232027       0.12099151     4425.9215    
    865000   0.73739398    -6.2779737     -5.1721592     -0.13802563     4475.9481    
    866000   0.7296939     -6.3029867     -5.2087194     -0.0084266867   4449.2578    
    867000   0.7216257     -6.2669453     -5.1847774     -0.097890658    4476.5276    
    868000   0.7356942     -6.2558654     -5.1526        -0.073378703    4481.6191    
    869000   0.73551844    -6.1981696     -5.0951678      0.15283954     4488.9262    
    870000   0.74697564    -6.2679185     -5.1477352     -0.024749697    4472.557     
    871000   0.73346424    -6.2621129     -5.1621916     -0.10859611     4480.0751    
    872000   0.75469172    -6.2295079     -5.0977533     -0.018973297    4491.8323    
    873000   0.73850669    -6.2507895     -5.1433064     -0.14354955     4491.8152    
    874000   0.74852107    -6.1944322     -5.0719313     -0.059397624    4512.8372    
    875000   0.721894      -6.2253689     -5.1427986     -0.044879401    4494.2468    
    876000   0.75805974    -6.1892373     -5.0524319     -0.084130698    4520.4516    
    877000   0.74983479    -6.2423007     -5.1178297      0.0022683085   4482.2798    
    878000   0.73581138    -6.1866574     -5.0832162      0.0076376476   4511.5934    
    879000   0.77141336    -6.1801297     -5.0232989     -0.087354105    4524.6882    
    880000   0.75206813    -6.205114      -5.0772938      0.10582396     4493.388     
    881000   0.75966406    -6.1669631     -5.0277519      0.00035318741  4521.8106    
    882000   0.75399085    -6.2022391     -5.0715355      0.22822814     4481.3695    
    883000   0.73507437    -6.2064955     -5.1041596      0.16137899     4484.4983    
    884000   0.74579906    -6.156689      -5.0382701     -0.026755595    4529.2579    
    885000   0.7436524     -6.1756239     -5.0604241      0.0040745503   4516.5001    
    886000   0.78062175    -6.1278756     -4.9572357      0.034577308    4542.5763    
    887000   0.75269836    -6.008158      -4.8793927      0.0035321407   4611.8189    
    888000   0.71541696    -5.7895807     -4.7167236     -0.011543231    4750.0436    
    889000   0.70571589    -5.3198996     -4.2615905     -0.04848388     5085.5066    
    890000   0.76109061    -5.0177973     -3.8764468     -0.006320195    5333.6735    
    891000   0.73615207    -5.0590536     -3.9551015      0.042873963    5284.5787    
    892000   0.76290445    -5.0265397     -3.8824691     -0.027441421    5323.7935    
    893000   0.74224507    -5.0384557     -3.9253665     -0.058799483    5322.8241    
    894000   0.75994931    -4.9936853     -3.8540463     -0.0073385186   5352.6619    
    895000   0.75585322    -5.0381465     -3.9046501     -0.053436767    5314.0206    
    896000   0.76547831    -5.0577844     -3.909854       0.020758871    5286.4465    
    897000   0.7562034     -5.0392774     -3.9052558      0.054839481    5302.3311    
    898000   0.74458756    -5.0203203     -3.9037181      0.073814139    5318.1945    
    899000   0.76067933    -4.9557737     -3.8150399     -0.038927299    5389.3457    
    900000   0.75645452    -4.9941349     -3.8597368     -0.13889821     5371.9081    
    901000   0.76854929    -5.0646215     -3.9120858     -0.042347548    5301.174     
    902000   0.77755908    -4.9807873     -3.8147403     -0.00031567331  5374.1343    
    903000   0.76549009    -5.0432603     -3.8953122      0.010400242    5306.8385    
    904000   0.79013514    -4.9778354     -3.792929       0.045775425    5356.4887    
    905000   0.75994424    -4.9993484     -3.859717      -0.050354666    5356.8659    
    906000   0.75362599    -4.9954478     -3.8652914      0.042792961    5338.3068    
    907000   0.78529986    -5.0080587     -3.8304034      0.18532279     5317.2631    
    908000   0.78698769    -4.9634215     -3.7832351     -0.012905878    5384.244     
    909000   0.79484048    -4.9842109     -3.7922482     -0.1329112      5397.8803    
    910000   0.7723657     -5.000286      -3.8420271      0.027529686    5344.2758    
    911000   0.77373867    -4.9495032     -3.7891854     -0.011888316    5393.7054    
    912000   0.78225551    -4.9863097     -3.8132198     -0.067301903    5375.8908    
    913000   0.77271504    -4.9004742     -3.7416914     -0.018892623    5437.1689    
    914000   0.78296522    -4.9248214     -3.7506672     -0.13794476     5441.488     
    915000   0.78854745    -4.9906789     -3.8081534     -0.075937503    5377.953     
    916000   0.77286434    -4.91767       -3.7586633      0.0320585      5416.7967    
    917000   0.77605152    -4.9797057     -3.8159194     -0.065486713    5379.2734    
    918000   0.77419519    -4.9556906     -3.7946881      0.023425127    5384.0315    
    919000   0.77929772    -4.9132133     -3.7445589      0.08726994     5410.0788    
    920000   0.77734807    -4.9526361     -3.7869055     -0.033672761    5391.1659    
    921000   0.79820464    -4.9532454     -3.7562378      0.044182326    5379.4364    
    922000   0.79766349    -4.8838523     -3.6876562     -0.036247581    5460.426     
    923000   0.77904723    -4.9251104     -3.7568317      0.059445876    5405.4029    
    924000   0.79968259    -4.9467031     -3.7474791      0.029051951    5392.3203    
    925000   0.78076937    -4.8692524     -3.6983912     -0.006412709    5469.2913    
    926000   0.7950089     -4.9448686     -3.7526534      0.04728673     5393.4083    
    927000   0.7953887     -4.8774567     -3.684672       0.036475235    5452.0948    
    928000   0.78794297    -4.9388267     -3.7572077      0.011183116    5404.5558    
    929000   0.78327812    -4.8618131     -3.6871896      0.032543971    5467.2129    
    930000   0.80284103    -4.925687      -3.7217265      0.034507008    5407.7195    
    931000   0.80093372    -4.8745935     -3.6734933      0.0083790288   5466.5328    
    932000   0.78519319    -4.9135046     -3.7360093     -0.0020388265   5428.2768    
    933000   0.78633189    -4.8413069     -3.662104       0.0074791921   5489.9015    
    934000   0.79871845    -4.8454196     -3.6476415      0.052420956    5491.4792    
    935000   0.81797405    -4.9153325     -3.6886781      0.064306002    5428.0765    
    936000   0.80492988    -4.8649093     -3.6578163      0.06052226     5454.3839    
    937000   0.79230593    -4.9155929     -3.7274311      0.048983318    5416.1554    
    938000   0.80043784    -4.8417438     -3.6413872     -0.026566688    5493.5882    
    939000   0.80157655    -4.8681323     -3.666068       0.017138551    5478.0381    
    940000   0.79735082    -4.8963042     -3.700577      -0.075898188    5463.3286    
    941000   0.81247553    -4.8003333     -3.5819247     -0.068584685    5543.7291    
    942000   0.79748052    -4.8140455     -3.6181238      0.070957296    5510.1718    
    943000   0.80228223    -4.8443606     -3.6412382     -0.044294205    5506.7075    
    944000   0.77511779    -4.802043      -3.639657      -0.1060798      5545.1352    
    945000   0.79638718    -4.82352       -3.6292379      0.013271       5506.2846    
    946000   0.79823894    -4.8506458     -3.6535867     -0.1332888      5515.2328    
    947000   0.80338854    -4.8099861     -3.6052045     -0.051454122    5542.4823    
    948000   0.80511546    -4.8813097     -3.6739384     -0.039081738    5468.6988    
    949000   0.80850942    -4.8300039     -3.617543      -0.036262074    5506.3798    
    950000   0.79364191    -4.8501048     -3.6599395     -0.081093029    5504.4766    
    951000   0.81513562    -4.7725057     -3.550108      -0.084541231    5590.3526    
    952000   0.80665211    -4.7932276     -3.5835519      0.015799256    5539.0397    
    953000   0.8112986     -4.8492871     -3.6326435      0.07549409     5471.7593    
    954000   0.81329435    -4.7907323     -3.5710958      0.039579858    5550.4896    
    955000   0.82110263    -4.8052404     -3.5738944     -0.082938902    5548.0862    
    956000   0.83152875    -4.7844396     -3.5374583      0.039115602    5542.4427    
    957000   0.80131491    -4.8016931     -3.6000213      0.094524126    5514.6209    
    958000   0.82048315    -4.7940201     -3.5636031     -0.036969988    5555.0068    
    959000   0.80164438    -4.7590344     -3.5568685      0.034062453    5561.8467    
    960000   0.81195688    -4.8161927     -3.5985619      0.094420777    5503.6661    
    961000   0.81876808    -4.7335341     -3.505689      -0.059524867    5618.0426    
    962000   0.79715108    -4.7409428     -3.5455151      0.014304902    5583.1189    
    963000   0.82761135    -4.732132      -3.4910253     -0.092443221    5630.1026    
    964000   0.82494852    -4.7600859     -3.5229725      0.060749912    5572.5192    
    965000   0.81211529    -4.7519837     -3.5341153      0.098945182    5570.4724    
    966000   0.81865727    -4.7724072     -3.5447283      0.055497819    5561.4062    
    967000   0.80677513    -4.7010394     -3.4911793     -0.076316846    5648.4218    
    968000   0.81975033    -4.735843      -3.5065249      0.011844167    5602.5235    
    969000   0.82815699    -4.7456264     -3.5037015      0.031069287    5581.3622    
    970000   0.82737625    -4.6987545     -3.4580004     -0.071099069    5642.9096    
    971000   0.8189139     -4.7351446     -3.5070808     -0.006440688    5609.9583    
    972000   0.8231759     -4.650251      -3.4157958      0.017059645    5685.8806    
    973000   0.81879468    -4.6715776     -3.4436926     -0.034527826    5698.6519    
    974000   0.81828004    -4.7093091     -3.4821959      0.0060705991   5629.1828    
    975000   0.84536415    -4.671184      -3.4034548     -0.050632685    5701.595     
    976000   0.83199615    -4.7161869     -3.4685047      0.066072876    5624.8747    
    977000   0.83136194    -4.6946433     -3.4479121      0.0021279242   5647.922     
    978000   0.85621836    -4.6557479     -3.3717414      0.056427121    5677.8367    
    979000   0.82462114    -4.6899815     -3.4533591      0.012501166    5649.2509    
    980000   0.82362266    -4.6904681     -3.455343      -0.026334173    5658.9265    
    981000   0.8190621     -4.7315217     -3.5032357     -0.044683023    5612.8302    
    982000   0.83293536    -4.6548551     -3.4057644     -0.0084601318   5689.9095    
    983000   0.84103251    -4.6598846     -3.3986513     -0.041006176    5684.4088    
    984000   0.87055394    -4.6919298     -3.3864253     -0.012809711    5658.4372    
    985000   0.84155488    -4.6661786     -3.4041619      0.020828364    5670.1847    
    986000   0.84653429    -4.7139633     -3.4444793     -0.042652865    5643.1415    
    987000   0.83941449    -4.6558982     -3.3970912     -0.1147702      5729.4602    
    988000   0.8455067     -4.7024914     -3.4345484      0.10665871     5613.9931    
    989000   0.87262556    -4.6474409     -3.3388298     -0.06475533     5721.7326    
    990000   0.82404263    -4.5791813     -3.3434263      0.041102337    5757.1644    
    991000   0.85560772    -4.7083753     -3.4252846      0.02348552     5630.5552    
    992000   0.84718245    -4.611846      -3.34139        0.0034739934   5738.2947    
    993000   0.8384336     -4.5883974     -3.3310614      0.0092856996   5773.2405    
    994000   0.84266528    -4.6103552     -3.3466733      0.084924627    5718.9804    
    995000   0.84729373    -4.6393371     -3.3687142     -0.036408162    5707.4647    
    996000   0.87023813    -4.6061489     -3.301118       0.024395576    5749.5919    
    997000   0.82532291    -4.5489949     -3.31132       -0.061088072    5817.342     
    998000   0.84079014    -4.6263083     -3.3654384      0.055473837    5714.0563    
    999000   0.86220447    -4.6120754     -3.319092       0.044314741    5736.079     
   1000000   0.84612116    -4.5563369     -3.2874725     -0.066219542    5823.3479    
Loop time of 2936.92 on 1 procs for 1000000 steps with 4000 atoms

Performance: 147092.799 tau/day, 340.493 timesteps/s, 1.362 Matom-step/s
100.0% CPU use with 1 MPI tasks x 1 OpenMP threads

MPI task timing breakdown:
Section |  min time  |  avg time  |  max time  |%varavg| %total
---------------------------------------------------------------
Pair    | 2227       | 2227       | 2227       |   0.0 | 75.83
Neigh   | 529.29     | 529.29     | 529.29     |   0.0 | 18.02
Comm    | 39.153     | 39.153     | 39.153     |   0.0 |  1.33
Output  | 0.63074    | 0.63074    | 0.63074    |   0.0 |  0.02
Modify  | 120.45     | 120.45     | 120.45     |   0.0 |  4.10
Other   |            | 20.36      |            |       |  0.69

Nlocal:           4000 ave        4000 max        4000 min
Histogram: 1 0 0 0 0 0 0 0 0 0
Nghost:           4965 ave        4965 max        4965 min
Histogram: 1 0 0 0 0 0 0 0 0 0
Neighs:         123729 ave      123729 max      123729 min
Histogram: 1 0 0 0 0 0 0 0 0 0

Total # of neighbors = 123729
Ave neighs/atom = 30.93225
Neighbor list builds = 90648
Dangerous builds = 0
Total wall time: 0:50:46
